       N       E                     dE             d eps       ncg     rms          rms(c)
DAV:   1     0.551389748779E+04    0.55139E+04   -0.19750E+05 21504   0.125E+03
DAV:   2     0.490167718009E+03   -0.50237E+04   -0.46260E+04 22212   0.349E+02
DAV:   3    -0.723793417573E+03   -0.12140E+04   -0.11762E+04 25152   0.178E+02
DAV:   4    -0.825449858715E+03   -0.10166E+03   -0.10019E+03 32100   0.588E+01
DAV:   5    -0.829223718791E+03   -0.37739E+01   -0.37307E+01 34080   0.127E+01
DAV:   6    -0.829384240321E+03   -0.16052E+00   -0.15939E+00 33888   0.236E+00
DAV:   7    -0.829392442337E+03   -0.82020E-02   -0.81739E-02 34188   0.532E-01
DAV:   8    -0.829392970043E+03   -0.52771E-03   -0.52679E-03 28116   0.119E-01
DAV:   9    -0.829393006716E+03   -0.36673E-04   -0.36612E-04 19968   0.358E-02
DAV:  10    -0.829393010741E+03   -0.40254E-05   -0.40082E-05 17736   0.168E-02
DAV:  11    -0.829393012275E+03   -0.15339E-05   -0.15272E-05 16584   0.115E-02
DAV:  12    -0.829393013161E+03   -0.88570E-06   -0.88185E-06 16152   0.867E-03    0.115E+02
DAV:  13    -0.610818411179E+03    0.21857E+03   -0.12840E+03 32016   0.807E+01    0.744E+01
DAV:  14    -0.629237457914E+03   -0.18419E+02   -0.35085E+02 33252   0.485E+01    0.492E+01
DAV:  15    -0.627511049069E+03    0.17264E+01   -0.45136E+01 30900   0.228E+01    0.306E+01
DAV:  16    -0.628615093440E+03   -0.11040E+01   -0.28876E+01 33228   0.197E+01    0.249E+01
DAV:  17    -0.627717913220E+03    0.89718E+00   -0.98360E+00 31680   0.736E+00    0.114E+01
DAV:  18    -0.627338147896E+03    0.37977E+00   -0.30376E+00 31692   0.640E+00    0.523E+00
DAV:  19    -0.627131355647E+03    0.20679E+00   -0.16538E+00 32004   0.341E+00    0.228E+00
DAV:  20    -0.627159779198E+03   -0.28424E-01   -0.23325E-01 29220   0.108E+00    0.157E+00
DAV:  21    -0.627162383833E+03   -0.26046E-02   -0.48194E-02 31500   0.748E-01    0.436E-01
DAV:  22    -0.627164253391E+03   -0.18696E-02   -0.15392E-02 28668   0.319E-01    0.300E-01
DAV:  23    -0.627164375071E+03   -0.12168E-03   -0.29956E-03 29484   0.143E-01    0.163E-01
DAV:  24    -0.627164398112E+03   -0.23041E-04   -0.23840E-03 31464   0.110E-01    0.126E-01
DAV:  25    -0.627164330898E+03    0.67214E-04   -0.40088E-04 22260   0.658E-02
   1 F= -.62716433E+03 E0= -.62716433E+03  d E =-.627164E+03  mag=    19.9830
       N       E                     dE             d eps       ncg     rms          rms(c)
DAV:   1    -0.628180621118E+03   -0.10162E+01   -0.52987E+02 21504   0.460E+01    0.134E+01
DAV:   2    -0.628599869242E+03   -0.41925E+00   -0.30776E+01 32100   0.167E+01    0.142E+01
DAV:   3    -0.628216523228E+03    0.38335E+00   -0.23903E+00 29844   0.483E+00    0.847E+00
DAV:   4    -0.628031715003E+03    0.18481E+00   -0.46225E-01 31524   0.175E+00    0.558E+00
DAV:   5    -0.627981717782E+03    0.49997E-01   -0.28366E-01 29964   0.152E+00    0.190E+00
DAV:   6    -0.627981795710E+03   -0.77928E-04   -0.12782E-01 31176   0.962E-01    0.852E-01
DAV:   7    -0.627981225664E+03    0.57005E-03   -0.25486E-02 30144   0.430E-01    0.451E-01
DAV:   8    -0.627980762397E+03    0.46327E-03   -0.44209E-03 32148   0.173E-01    0.208E-01
DAV:   9    -0.627980549130E+03    0.21327E-03   -0.19082E-03 30720   0.119E-01    0.126E-01
DAV:  10    -0.627980532614E+03    0.16516E-04   -0.67497E-04 25956   0.752E-02
   2 F= -.62798053E+03 E0= -.62798053E+03  d E =-.816202E+00  mag=    19.9887
       N       E                     dE             d eps       ncg     rms          rms(c)
DAV:   1    -0.628857587234E+03   -0.87704E+00   -0.41167E+01 22116   0.137E+01    0.704E+00
DAV:   2    -0.628374850268E+03    0.48274E+00   -0.52053E+00 31716   0.619E+00    0.692E+00
DAV:   3    -0.628230418894E+03    0.14443E+00   -0.10584E+00 31512   0.263E+00    0.302E+00
DAV:   4    -0.628213425339E+03    0.16994E-01   -0.12728E-01 30852   0.750E-01    0.190E+00
DAV:   5    -0.628207547486E+03    0.58779E-02   -0.37631E-02 30876   0.554E-01    0.902E-01
DAV:   6    -0.628204634357E+03    0.29131E-02   -0.26810E-02 32016   0.379E-01    0.289E-01
DAV:   7    -0.628204858241E+03   -0.22388E-03   -0.53077E-03 29304   0.182E-01    0.204E-01
DAV:   8    -0.628204875575E+03   -0.17334E-04   -0.72186E-04 25956   0.706E-02
   3 F= -.62820488E+03 E0= -.62820488E+03  d E =-.224343E+00  mag=    19.9916
       N       E                     dE             d eps       ncg     rms          rms(c)
DAV:   1    -0.628266879665E+03   -0.62021E-01   -0.21830E+01 21504   0.932E+00    0.201E+00
DAV:   2    -0.628321670716E+03   -0.54791E-01   -0.96775E-01 30288   0.267E+00    0.233E+00
DAV:   3    -0.628311093779E+03    0.10577E-01   -0.91579E-02 29220   0.857E-01    0.145E+00
DAV:   4    -0.628305897874E+03    0.51959E-02   -0.21435E-02 30048   0.302E-01    0.103E+00
DAV:   5    -0.628302973258E+03    0.29246E-02   -0.11295E-02 29652   0.347E-01    0.436E-01
DAV:   6    -0.628302309857E+03    0.66340E-03   -0.10712E-02 30816   0.254E-01    0.242E-01
DAV:   7    -0.628302357964E+03   -0.48107E-04   -0.23358E-03 29100   0.109E-01    0.112E-01
DAV:   8    -0.628302321865E+03    0.36100E-04   -0.18455E-04 14136   0.393E-02
   4 F= -.62830232E+03 E0= -.62830232E+03  d E =-.974463E-01  mag=    19.9938
       N       E                     dE             d eps       ncg     rms          rms(c)
DAV:   1    -0.628398288382E+03   -0.95930E-01   -0.28682E+01 21624   0.108E+01    0.326E+00
DAV:   2    -0.628343831518E+03    0.54457E-01   -0.16047E+00 30852   0.321E+00    0.304E+00
DAV:   3    -0.628321882176E+03    0.21949E-01   -0.19130E-01 30312   0.123E+00    0.174E+00
DAV:   4    -0.628310862873E+03    0.11019E-01   -0.68581E-02 30972   0.580E-01    0.119E+00
DAV:   5    -0.628307400711E+03    0.34622E-02   -0.14512E-02 29196   0.398E-01    0.563E-01
DAV:   6    -0.628306931388E+03    0.46932E-03   -0.97981E-03 31896   0.244E-01    0.194E-01
DAV:   7    -0.628306983202E+03   -0.51814E-04   -0.19009E-03 32052   0.138E-01    0.140E-01
DAV:   8    -0.628306999576E+03   -0.16374E-04   -0.57529E-04 24108   0.671E-02
   5 F= -.62830700E+03 E0= -.62830700E+03  d E =-.467771E-02  mag=    19.9955
       N       E                     dE             d eps       ncg     rms          rms(c)
DAV:   1    -0.628434922434E+03   -0.12794E+00   -0.10956E+01 21648   0.662E+00    0.200E+00
DAV:   2    -0.628410807734E+03    0.24115E-01   -0.54287E-01 29340   0.184E+00    0.180E+00
DAV:   3    -0.628403794441E+03    0.70133E-02   -0.68253E-02 29652   0.702E-01    0.986E-01
DAV:   4    -0.628398293060E+03    0.55014E-02   -0.37241E-02 30936   0.445E-01    0.609E-01
DAV:   5    -0.628396724192E+03    0.15689E-02   -0.85462E-03 29724   0.282E-01    0.306E-01
DAV:   6    -0.628396574557E+03    0.14964E-03   -0.61595E-03 31920   0.191E-01    0.128E-01
DAV:   7    -0.628396555557E+03    0.19000E-04   -0.12540E-03 31368   0.957E-02    0.843E-02
DAV:   8    -0.628396531949E+03    0.23608E-04   -0.28873E-04 18912   0.457E-02
   6 F= -.62839653E+03 E0= -.62839653E+03  d E =-.895324E-01  mag=    19.9968
       N       E                     dE             d eps       ncg     rms          rms(c)
DAV:   1    -0.628391322649E+03    0.52329E-02   -0.18411E+01 21504   0.847E+00    0.127E+00
DAV:   2    -0.628437971365E+03   -0.46649E-01   -0.58791E-01 27876   0.166E+00    0.106E+00
DAV:   3    -0.628437022955E+03    0.94841E-03   -0.33235E-02 29844   0.474E-01    0.649E-01
DAV:   4    -0.628435378488E+03    0.16445E-02   -0.52644E-03 31236   0.195E-01    0.447E-01
DAV:   5    -0.628434729391E+03    0.64910E-03   -0.46352E-03 31260   0.186E-01    0.196E-01
DAV:   6    -0.628434755301E+03   -0.25910E-04   -0.11789E-03 27384   0.952E-02    0.106E-01
DAV:   7    -0.628434728782E+03    0.26518E-04   -0.53187E-04 23040   0.595E-02
   7 F= -.62843473E+03 E0= -.62843473E+03  d E =-.381968E-01  mag=    19.9976
       N       E                     dE             d eps       ncg     rms          rms(c)
DAV:   1    -0.628443284958E+03   -0.85297E-02   -0.20336E+00 21552   0.284E+00    0.487E-01
DAV:   2    -0.628447407979E+03   -0.41230E-02   -0.73762E-02 29160   0.631E-01    0.483E-01
DAV:   3    -0.628446901807E+03    0.50617E-03   -0.52043E-03 29940   0.206E-01    0.270E-01
DAV:   4    -0.628446592691E+03    0.30912E-03   -0.17368E-03 29856   0.109E-01    0.190E-01
DAV:   5    -0.628446517481E+03    0.75209E-04   -0.59764E-04 25128   0.707E-02
   8 F= -.62844652E+03 E0= -.62844652E+03  d E =-.117887E-01  mag=    19.9980
       N       E                     dE             d eps       ncg     rms          rms(c)
DAV:   1    -0.628441677092E+03    0.49156E-02   -0.93331E+00 21504   0.602E+00    0.693E-01
DAV:   2    -0.628467363325E+03   -0.25686E-01   -0.26680E-01 26532   0.107E+00    0.560E-01
DAV:   3    -0.628467337753E+03    0.25572E-04   -0.11937E-02 30024   0.264E-01    0.333E-01
DAV:   4    -0.628466639284E+03    0.69847E-03   -0.23769E-03 31356   0.137E-01    0.236E-01
DAV:   5    -0.628466336443E+03    0.30284E-03   -0.19670E-03 31548   0.141E-01    0.110E-01
DAV:   6    -0.628466387551E+03   -0.51108E-04   -0.10424E-03 25380   0.768E-02    0.881E-02
DAV:   7    -0.628466347539E+03    0.40012E-04   -0.18670E-04 13608   0.424E-02
   9 F= -.62846635E+03 E0= -.62846635E+03  d E =-.198301E-01  mag=    19.9985
       N       E                     dE             d eps       ncg     rms          rms(c)
DAV:   1    -0.628470384247E+03   -0.39967E-02   -0.11772E+00 21552   0.214E+00    0.365E-01
DAV:   2    -0.628472915681E+03   -0.25314E-02   -0.40134E-02 28680   0.475E-01    0.353E-01
DAV:   3    -0.628472900976E+03    0.14705E-04   -0.49334E-03 30180   0.153E-01    0.210E-01
DAV:   4    -0.628472738467E+03    0.16251E-03   -0.16039E-03 29580   0.106E-01    0.166E-01
DAV:   5    -0.628472666638E+03    0.71829E-04   -0.72755E-04 25608   0.720E-02
  10 F= -.62847267E+03 E0= -.62847267E+03  d E =-.631910E-02  mag=    19.9987
       N       E                     dE             d eps       ncg     rms          rms(c)
DAV:   1    -0.628474473710E+03   -0.17352E-02   -0.31544E+00 21504   0.353E+00    0.459E-01
DAV:   2    -0.628482002079E+03   -0.75284E-02   -0.94486E-02 25920   0.650E-01    0.321E-01
DAV:   3    -0.628481895043E+03    0.10704E-03   -0.45896E-03 29976   0.176E-01    0.216E-01
DAV:   4    -0.628481621749E+03    0.27329E-03   -0.13738E-03 30816   0.927E-02    0.126E-01
DAV:   5    -0.628481456977E+03    0.16477E-03   -0.32929E-04 20304   0.777E-02    0.647E-02
DAV:   6    -0.628481479464E+03   -0.22486E-04   -0.56995E-04 24108   0.587E-02
  11 F= -.62848148E+03 E0= -.62848148E+03  d E =-.881283E-02  mag=    19.9990
       N       E                     dE             d eps       ncg     rms          rms(c)
DAV:   1    -0.628480589847E+03    0.86713E-03   -0.16185E-01 21948   0.790E-01    0.140E-01
DAV:   2    -0.628480945083E+03   -0.35524E-03   -0.67144E-03 28548   0.216E-01    0.198E-01
DAV:   3    -0.628480937590E+03    0.74930E-05   -0.78949E-04 24588   0.608E-02
  12 F= -.62848094E+03 E0= -.62848094E+03  d E =0.541873E-03  mag=    19.9991
       N       E                     dE             d eps       ncg     rms          rms(c)
DAV:   1    -0.628483532774E+03   -0.25877E-02   -0.11271E+00 21504   0.210E+00    0.355E-01
DAV:   2    -0.628486087727E+03   -0.25550E-02   -0.37793E-02 28308   0.432E-01    0.267E-01
DAV:   3    -0.628485957884E+03    0.12984E-03   -0.30707E-03 29448   0.140E-01    0.150E-01
DAV:   4    -0.628485832342E+03    0.12554E-03   -0.52730E-04 23400   0.674E-02    0.974E-02
DAV:   5    -0.628485804408E+03    0.27933E-04   -0.26006E-04 15648   0.492E-02
  13 F= -.62848580E+03 E0= -.62848580E+03  d E =-.486682E-02  mag=    19.9992
       N       E                     dE             d eps       ncg     rms          rms(c)
DAV:   1    -0.628487713952E+03   -0.18816E-02   -0.16463E-01 21816   0.815E-01    0.167E-01
DAV:   2    -0.628487840093E+03   -0.12614E-03   -0.61147E-03 27720   0.177E-01    0.122E-01
DAV:   3    -0.628487806597E+03    0.33495E-04   -0.57941E-04 23760   0.680E-02
  14 F= -.62848781E+03 E0= -.62848781E+03  d E =-.200219E-02  mag=    19.9993
       N       E                     dE             d eps       ncg     rms          rms(c)
DAV:   1    -0.628490289865E+03   -0.24498E-02   -0.45673E-01 21576   0.134E+00    0.229E-01
DAV:   2    -0.628490954645E+03   -0.66478E-03   -0.14554E-02 26952   0.256E-01    0.161E-01
DAV:   3    -0.628490838107E+03    0.11654E-03   -0.97705E-04 28044   0.922E-02    0.757E-02
DAV:   4    -0.628490778301E+03    0.59806E-04   -0.18392E-04 14616   0.437E-02
  15 F= -.62849078E+03 E0= -.62849078E+03  d E =-.297170E-02  mag=    19.9994
       N       E                     dE             d eps       ncg     rms          rms(c)
DAV:   1    -0.628492626312E+03   -0.17882E-02   -0.65300E-01 21552   0.159E+00    0.180E-01
DAV:   2    -0.628494331978E+03   -0.17057E-02   -0.17960E-02 25068   0.276E-01    0.117E-01
DAV:   3    -0.628494332277E+03   -0.29930E-06   -0.74500E-04 26556   0.608E-02
  16 F= -.62849433E+03 E0= -.62849433E+03  d E =-.355398E-02  mag=    19.9994
       N       E                     dE             d eps       ncg     rms          rms(c)
DAV:   1    -0.628482045758E+03    0.12286E-01   -0.92126E+00 21504   0.598E+00    0.718E-01
DAV:   2    -0.628506265397E+03   -0.24220E-01   -0.25262E-01 24708   0.104E+00    0.455E-01
DAV:   3    -0.628506424759E+03   -0.15936E-03   -0.10458E-02 29712   0.219E-01    0.330E-01
DAV:   4    -0.628505777474E+03    0.64729E-03   -0.14598E-03 30600   0.102E-01    0.216E-01
DAV:   5    -0.628505201420E+03    0.57605E-03   -0.19067E-03 31212   0.160E-01    0.754E-02
DAV:   6    -0.628505332196E+03   -0.13078E-03   -0.15735E-03 25608   0.804E-02    0.734E-02
DAV:   7    -0.628505279655E+03    0.52541E-04   -0.90657E-05 12720   0.331E-02
  17 F= -.62850528E+03 E0= -.62850528E+03  d E =-.109474E-01  mag=    19.9996
       N       E                     dE             d eps       ncg     rms          rms(c)
DAV:   1    -0.628500773533E+03    0.45587E-02   -0.82723E-01 21504   0.177E+00    0.258E-01
DAV:   2    -0.628502521827E+03   -0.17483E-02   -0.23222E-02 27300   0.331E-01    0.212E-01
DAV:   3    -0.628502476211E+03    0.45616E-04   -0.16917E-03 29124   0.891E-02    0.153E-01
DAV:   4    -0.628502341180E+03    0.13503E-03   -0.36942E-04 20376   0.478E-02    0.102E-01
DAV:   5    -0.628502269908E+03    0.71272E-04   -0.23594E-04 17112   0.460E-02
  18 F= -.62850227E+03 E0= -.62850227E+03  d E =0.300975E-02  mag=    19.9996
       N       E                     dE             d eps       ncg     rms          rms(c)
DAV:   1    -0.628502420752E+03   -0.79572E-04   -0.50788E-03 22272   0.132E-01    0.439E-02
DAV:   2    -0.628502415280E+03    0.54722E-05   -0.30466E-04 19668   0.467E-02
  19 F= -.62850242E+03 E0= -.62850242E+03  d E =-.145372E-03  mag=    19.9997
       N       E                     dE             d eps       ncg     rms          rms(c)
DAV:   1    -0.628503219131E+03   -0.79838E-03   -0.88127E-01 21504   0.186E+00    0.236E-01
DAV:   2    -0.628505601072E+03   -0.23819E-02   -0.25439E-02 25752   0.337E-01    0.159E-01
DAV:   3    -0.628505623617E+03   -0.22545E-04   -0.12069E-03 28368   0.792E-02    0.101E-01
DAV:   4    -0.628505546386E+03    0.77231E-04   -0.11418E-04 12780   0.392E-02
  20 F= -.62850555E+03 E0= -.62850555E+03  d E =-.313111E-02  mag=    19.9997
       N       E                     dE             d eps       ncg     rms          rms(c)
DAV:   1    -0.628500606598E+03    0.50170E-02   -0.75061E-01 21516   0.172E+00    0.217E-01
DAV:   2    -0.628502807020E+03   -0.22004E-02   -0.23583E-02 25524   0.334E-01    0.177E-01
DAV:   3    -0.628502781762E+03    0.25259E-04   -0.10982E-03 28548   0.817E-02    0.104E-01
DAV:   4    -0.628502688853E+03    0.92909E-04   -0.36988E-04 20544   0.560E-02
  21 F= -.62850269E+03 E0= -.62850269E+03  d E =0.285753E-02  mag=    19.9998
       N       E                     dE             d eps       ncg     rms          rms(c)
DAV:   1    -0.628503452552E+03   -0.67079E-03   -0.87821E-02 21612   0.582E-01    0.104E-01
DAV:   2    -0.628503650521E+03   -0.19797E-03   -0.38826E-03 26964   0.156E-01    0.132E-01
DAV:   3    -0.628503632313E+03    0.18208E-04   -0.33634E-04 19488   0.450E-02
  22 F= -.62850363E+03 E0= -.62850363E+03  d E =-.943460E-03  mag=    19.9998
       N       E                     dE             d eps       ncg     rms          rms(c)
DAV:   1    -0.628505243136E+03   -0.15926E-02   -0.47907E-01 21504   0.139E+00    0.282E-01
DAV:   2    -0.628505478655E+03   -0.23552E-03   -0.16092E-02 27552   0.282E-01    0.184E-01
DAV:   3    -0.628505347398E+03    0.13126E-03   -0.14425E-03 28800   0.115E-01    0.965E-02
DAV:   4    -0.628505285085E+03    0.62313E-04   -0.39671E-04 21864   0.531E-02
  23 F= -.62850529E+03 E0= -.62850529E+03  d E =-.165277E-02  mag=    19.9998
       N       E                     dE             d eps       ncg     rms          rms(c)
DAV:   1    -0.628506962971E+03   -0.16156E-02   -0.94535E-02 21588   0.618E-01    0.206E-01
DAV:   2    -0.628506597656E+03    0.36532E-03   -0.46622E-03 30996   0.181E-01    0.172E-01
DAV:   3    -0.628506545767E+03    0.51888E-04   -0.84790E-04 27276   0.719E-02
  24 F= -.62850655E+03 E0= -.62850655E+03  d E =-.126068E-02  mag=    19.9998
       N       E                     dE             d eps       ncg     rms          rms(c)
DAV:   1    -0.628507394510E+03   -0.79685E-03   -0.31155E-01 21504   0.110E+00    0.175E-01
DAV:   2    -0.628508175943E+03   -0.78143E-03   -0.86861E-03 26616   0.198E-01    0.120E-01
DAV:   3    -0.628508184332E+03   -0.83890E-05   -0.40973E-04 19536   0.455E-02
  25 F= -.62850818E+03 E0= -.62850818E+03  d E =-.163856E-02  mag=    19.9998
       N       E                     dE             d eps       ncg     rms          rms(c)
DAV:   1    -0.628508542819E+03   -0.36688E-03   -0.19902E-02 21888   0.279E-01    0.657E-02
DAV:   2    -0.628508552133E+03   -0.93143E-05   -0.57917E-04 20244   0.613E-02
  26 F= -.62850855E+03 E0= -.62850855E+03  d E =-.367801E-03  mag=    19.9998
       N       E                     dE             d eps       ncg     rms          rms(c)
DAV:   1    -0.628508546151E+03   -0.33322E-05   -0.73168E-05 12396   0.233E-02    0.366E-02
DAV:   2    -0.628508542284E+03    0.38670E-05   -0.21900E-05 11988   0.174E-02
  27 F= -.62850854E+03 E0= -.62850854E+03  d E =0.984915E-05  mag=    19.9999
       N       E                     dE             d eps       ncg     rms          rms(c)
DAV:   1    -0.628509339565E+03   -0.79341E-03   -0.46368E-01 21504   0.135E+00    0.173E-01
DAV:   2    -0.628510403012E+03   -0.10634E-02   -0.13594E-02 25296   0.239E-01    0.943E-02
DAV:   3    -0.628510361935E+03    0.41077E-04   -0.46510E-04 22968   0.645E-02
  28 F= -.62851036E+03 E0= -.62851036E+03  d E =-.181965E-02  mag=    19.9999
       N       E                     dE             d eps       ncg     rms          rms(c)
DAV:   1    -0.628511156276E+03   -0.75326E-03   -0.60730E-02 21576   0.491E-01    0.140E-01
DAV:   2    -0.628511091692E+03    0.64585E-04   -0.27969E-03 30372   0.123E-01    0.125E-01
DAV:   3    -0.628511019402E+03    0.72290E-04   -0.31329E-04 18864   0.492E-02
  29 F= -.62851102E+03 E0= -.62851102E+03  d E =-.657467E-03  mag=    19.9999
       N       E                     dE             d eps       ncg     rms          rms(c)
DAV:   1    -0.628511687338E+03   -0.59565E-03   -0.43923E-01 21504   0.131E+00    0.162E-01
DAV:   2    -0.628512778466E+03   -0.10911E-02   -0.12320E-02 26040   0.235E-01    0.113E-01
DAV:   3    -0.628512767537E+03    0.10929E-04   -0.61407E-04 24936   0.583E-02
  30 F= -.62851277E+03 E0= -.62851277E+03  d E =-.174814E-02  mag=    19.9999
       N       E                     dE             d eps       ncg     rms          rms(c)
DAV:   1    -0.628511793048E+03    0.98542E-03   -0.14112E+00 21504   0.235E+00    0.281E-01
DAV:   2    -0.628515416908E+03   -0.36239E-02   -0.38738E-02 24936   0.417E-01    0.197E-01
DAV:   3    -0.628515410947E+03    0.59606E-05   -0.15754E-03 29892   0.967E-02    0.144E-01
DAV:   4    -0.628515299508E+03    0.11144E-03   -0.16788E-04 15684   0.409E-02    0.921E-02
DAV:   5    -0.628515207004E+03    0.92504E-04   -0.66160E-04 24120   0.847E-02
  31 F= -.62851521E+03 E0= -.62851521E+03  d E =-.243947E-02  mag=    19.9999
       N       E                     dE             d eps       ncg     rms          rms(c)
DAV:   1    -0.628514162336E+03    0.11372E-02   -0.18289E-01 21540   0.852E-01    0.989E-02
DAV:   2    -0.628514567413E+03   -0.40508E-03   -0.53160E-03 27576   0.175E-01    0.107E-01
DAV:   3    -0.628514553829E+03    0.13584E-04   -0.20964E-04 15288   0.428E-02
  32 F= -.62851455E+03 E0= -.62851455E+03  d E =0.653175E-03  mag=    19.9999
       N       E                     dE             d eps       ncg     rms          rms(c)
DAV:   1    -0.628514875500E+03   -0.30809E-03   -0.85884E-02 21528   0.586E-01    0.991E-02
DAV:   2    -0.628515051854E+03   -0.17635E-03   -0.29651E-03 28248   0.121E-01    0.672E-02
DAV:   3    -0.628515040736E+03    0.11118E-04   -0.15756E-04 14748   0.371E-02
  33 F= -.62851504E+03 E0= -.62851504E+03  d E =-.486907E-03  mag=    19.9999
       N       E                     dE             d eps       ncg     rms          rms(c)
DAV:   1    -0.628514994077E+03    0.57777E-04   -0.97429E-03 21648   0.195E-01    0.683E-02
DAV:   2    -0.628514961272E+03    0.32805E-04   -0.32311E-04 19848   0.647E-02
  34 F= -.62851496E+03 E0= -.62851496E+03  d E =0.794646E-04  mag=    19.9999
       N       E                     dE             d eps       ncg     rms          rms(c)
DAV:   1    -0.628515589990E+03   -0.59591E-03   -0.24953E-01 21504   0.999E-01    0.164E-01
DAV:   2    -0.628516042935E+03   -0.45294E-03   -0.80091E-03 26556   0.192E-01    0.101E-01
DAV:   3    -0.628516007805E+03    0.35130E-04   -0.40067E-04 20256   0.617E-02
  35 F= -.62851601E+03 E0= -.62851601E+03  d E =-.104653E-02  mag=    19.9999
       N       E                     dE             d eps       ncg     rms          rms(c)
DAV:   1    -0.628516077208E+03   -0.34273E-04   -0.12075E-03 20064   0.738E-02    0.393E-02
DAV:   2    -0.628516064603E+03    0.12605E-04   -0.84732E-05 12912   0.251E-02
  36 F= -.62851606E+03 E0= -.62851606E+03  d E =-.567982E-04  mag=    19.9999
       N       E                     dE             d eps       ncg     rms          rms(c)
DAV:   1    -0.628516503835E+03   -0.42663E-03   -0.53903E-02 21600   0.474E-01    0.144E-01
DAV:   2    -0.628516395996E+03    0.10784E-03   -0.24116E-03 30372   0.125E-01    0.110E-01
DAV:   3    -0.628516361094E+03    0.34902E-04   -0.36266E-04 20484   0.518E-02
  37 F= -.62851636E+03 E0= -.62851636E+03  d E =-.296491E-03  mag=    19.9999
       N       E                     dE             d eps       ncg     rms          rms(c)
DAV:   1    -0.628516789766E+03   -0.39377E-03   -0.25368E-02 21504   0.318E-01    0.793E-02
DAV:   2    -0.628516771519E+03    0.18246E-04   -0.11373E-03 28068   0.797E-02    0.657E-02
DAV:   3    -0.628516747264E+03    0.24255E-04   -0.12656E-04 14160   0.369E-02
  38 F= -.62851675E+03 E0= -.62851675E+03  d E =-.386170E-03  mag=    20.0000
       N       E                     dE             d eps       ncg     rms          rms(c)
DAV:   1    -0.628518148071E+03   -0.13766E-02   -0.41989E-01 21720   0.131E+00    0.309E-01
DAV:   2    -0.628517809600E+03    0.33847E-03   -0.15976E-02 28248   0.287E-01    0.219E-01
DAV:   3    -0.628517632969E+03    0.17663E-03   -0.15068E-03 29100   0.117E-01    0.108E-01
DAV:   4    -0.628517559012E+03    0.73957E-04   -0.51967E-04 22944   0.581E-02
  39 F= -.62851756E+03 E0= -.62851756E+03  d E =-.811748E-03  mag=    20.0000
       N       E                     dE             d eps       ncg     rms          rms(c)
DAV:   1    -0.628518373761E+03   -0.74079E-03   -0.38251E-02 21888   0.399E-01    0.166E-01
DAV:   2    -0.628518044015E+03    0.32975E-03   -0.23206E-03 30648   0.131E-01    0.121E-01
DAV:   3    -0.628518015203E+03    0.28812E-04   -0.49551E-04 23796   0.586E-02
  40 F= -.62851802E+03 E0= -.62851802E+03  d E =-.456191E-03  mag=    20.0000
       N       E                     dE             d eps       ncg     rms          rms(c)
DAV:   1    -0.628518408036E+03   -0.36402E-03   -0.11828E-01 21504   0.690E-01    0.149E-01
DAV:   2    -0.628518562586E+03   -0.15455E-03   -0.43052E-03 28368   0.147E-01    0.114E-01
DAV:   3    -0.628518520911E+03    0.41675E-04   -0.34585E-04 19980   0.543E-02
  41 F= -.62851852E+03 E0= -.62851852E+03  d E =-.505708E-03  mag=    20.0000
       N       E                     dE             d eps       ncg     rms          rms(c)
DAV:   1    -0.628518623734E+03   -0.61147E-04   -0.59406E-03 22212   0.151E-01    0.476E-02
DAV:   2    -0.628518613409E+03    0.10325E-04   -0.17753E-04 13128   0.411E-02
  42 F= -.62851861E+03 E0= -.62851861E+03  d E =-.924977E-04  mag=    20.0000
       N       E                     dE             d eps       ncg     rms          rms(c)
DAV:   1    -0.628518617039E+03    0.66948E-05   -0.91863E-02 21504   0.605E-01    0.948E-02
DAV:   2    -0.628518824223E+03   -0.20718E-03   -0.29150E-03 28464   0.137E-01    0.107E-01
DAV:   3    -0.628518807207E+03    0.17016E-04   -0.17215E-04 14700   0.411E-02
  43 F= -.62851881E+03 E0= -.62851881E+03  d E =-.193797E-03  mag=    20.0000
       N       E                     dE             d eps       ncg     rms          rms(c)
DAV:   1    -0.628520666950E+03   -0.18427E-02   -0.15591E-01 21960   0.848E-01    0.418E-01
DAV:   2    -0.628518316797E+03    0.23502E-02   -0.14988E-02 31344   0.293E-01    0.272E-01
DAV:   3    -0.628517966540E+03    0.35026E-03   -0.32097E-03 30480   0.157E-01    0.121E-01
DAV:   4    -0.628517880155E+03    0.86385E-04   -0.49502E-04 23268   0.534E-02
  44 F= -.62851788E+03 E0= -.62851788E+03  d E =0.927052E-03  mag=    20.0000
       N       E                     dE             d eps       ncg     rms          rms(c)
DAV:   1    -0.628520278831E+03   -0.23123E-02   -0.43646E-01 21504   0.130E+00    0.458E-01
DAV:   2    -0.628518307553E+03    0.19713E-02   -0.23538E-02 29388   0.414E-01    0.414E-01
DAV:   3    -0.628518068680E+03    0.23887E-03   -0.48215E-03 29568   0.162E-01    0.253E-01
DAV:   4    -0.628517798598E+03    0.27008E-03   -0.19117E-03 28872   0.974E-02    0.181E-01
DAV:   5    -0.628517680625E+03    0.11797E-03   -0.22090E-04 18096   0.635E-02    0.758E-02
DAV:   6    -0.628517686453E+03   -0.58287E-05   -0.36855E-04 21516   0.511E-02
  45 F= -.62851769E+03 E0= -.62851769E+03  d E =0.193701E-03  mag=    20.0000
       N       E                     dE             d eps       ncg     rms          rms(c)
DAV:   1    -0.628519871619E+03   -0.21910E-02   -0.20211E-01 21552   0.856E-01    0.217E-01
DAV:   2    -0.628519873021E+03   -0.14020E-05   -0.10172E-02 28152   0.264E-01    0.260E-01
DAV:   3    -0.628519836350E+03    0.36671E-04   -0.17156E-03 26544   0.869E-02    0.180E-01
DAV:   4    -0.628519658812E+03    0.17754E-03   -0.73932E-04 22764   0.588E-02    0.134E-01
DAV:   5    -0.628519601747E+03    0.57065E-04   -0.29271E-04 20100   0.564E-02
  46 F= -.62851960E+03 E0= -.62851960E+03  d E =-.191529E-02  mag=    20.0000
       N       E                     dE             d eps       ncg     rms          rms(c)
DAV:   1    -0.628519832183E+03   -0.17337E-03   -0.32505E-02 22272   0.362E-01    0.653E-02
DAV:   2    -0.628519879486E+03   -0.47303E-04   -0.11747E-03 25524   0.755E-02    0.396E-02
DAV:   3    -0.628519880321E+03   -0.83515E-06   -0.85010E-05 12696   0.246E-02
  47 F= -.62851988E+03 E0= -.62851988E+03  d E =-.278574E-03  mag=    20.0000
       N       E                     dE             d eps       ncg     rms          rms(c)
DAV:   1    -0.628520192238E+03   -0.31275E-03   -0.14571E-01 21504   0.751E-01    0.104E-01
DAV:   2    -0.628520477966E+03   -0.28573E-03   -0.42255E-03 27900   0.140E-01    0.787E-02
DAV:   3    -0.628520459984E+03    0.17982E-04   -0.23441E-04 15348   0.376E-02
  48 F= -.62852046E+03 E0= -.62852046E+03  d E =-.579663E-03  mag=    20.0000
       N       E                     dE             d eps       ncg     rms          rms(c)
DAV:   1    -0.628520656142E+03   -0.17818E-03   -0.31815E-02 21504   0.351E-01    0.591E-02
DAV:   2    -0.628520734132E+03   -0.77990E-04   -0.98405E-04 23340   0.720E-02
  49 F= -.62852073E+03 E0= -.62852073E+03  d E =-.274148E-03  mag=    20.0000
       N       E                     dE             d eps       ncg     rms          rms(c)
DAV:   1    -0.628521122347E+03   -0.46620E-03   -0.64595E-02 21708   0.514E-01    0.134E-01
DAV:   2    -0.628521050199E+03    0.72148E-04   -0.25456E-03 29208   0.117E-01    0.962E-02
DAV:   3    -0.628521012865E+03    0.37334E-04   -0.21204E-04 18024   0.492E-02
  50 F= -.62852101E+03 E0= -.62852101E+03  d E =-.278733E-03  mag=    20.0000
       N       E                     dE             d eps       ncg     rms          rms(c)
DAV:   1    -0.628521174302E+03   -0.12410E-03   -0.11300E-02 21840   0.211E-01    0.292E-02
DAV:   2    -0.628521189116E+03   -0.14815E-04   -0.28187E-04 15120   0.400E-02
  51 F= -.62852119E+03 E0= -.62852119E+03  d E =-.176251E-03  mag=    20.0000
       N       E                     dE             d eps       ncg     rms          rms(c)
DAV:   1    -0.628521443556E+03   -0.26925E-03   -0.18380E-02 21684   0.274E-01    0.129E-01
DAV:   2    -0.628521305712E+03    0.13784E-03   -0.10267E-03 27060   0.849E-02    0.752E-02
DAV:   3    -0.628521291743E+03    0.13968E-04   -0.24595E-04 18324   0.479E-02
  52 F= -.62852129E+03 E0= -.62852129E+03  d E =-.102627E-03  mag=    20.0000
       N       E                     dE             d eps       ncg     rms          rms(c)
DAV:   1    -0.628521561444E+03   -0.25573E-03   -0.38591E-02 21528   0.393E-01    0.856E-02
DAV:   2    -0.628521582437E+03   -0.20993E-04   -0.14914E-03 27924   0.855E-02    0.698E-02
DAV:   3    -0.628521559255E+03    0.23182E-04   -0.11175E-04 13968   0.382E-02
  53 F= -.62852156E+03 E0= -.62852156E+03  d E =-.267511E-03  mag=    20.0000
       N       E                     dE             d eps       ncg     rms          rms(c)
DAV:   1    -0.628521694986E+03   -0.11255E-03   -0.11316E-02 21528   0.210E-01    0.443E-02
DAV:   2    -0.628521704160E+03   -0.91741E-05   -0.34317E-04 16020   0.425E-02
  54 F= -.62852170E+03 E0= -.62852170E+03  d E =-.144905E-03  mag=    20.0000
       N       E                     dE             d eps       ncg     rms          rms(c)
DAV:   1    -0.628522112728E+03   -0.41774E-03   -0.81619E-02 21792   0.578E-01    0.144E-01
DAV:   2    -0.628522022439E+03    0.90289E-04   -0.32392E-03 29424   0.129E-01    0.106E-01
DAV:   3    -0.628521978023E+03    0.44416E-04   -0.27734E-04 19920   0.539E-02
  55 F= -.62852198E+03 E0= -.62852198E+03  d E =-.273863E-03  mag=    20.0000
       N       E                     dE             d eps       ncg     rms          rms(c)
DAV:   1    -0.628522193130E+03   -0.17069E-03   -0.18742E-02 21576   0.271E-01    0.517E-02
DAV:   2    -0.628522208403E+03   -0.15274E-04   -0.61537E-04 22680   0.589E-02
  56 F= -.62852221E+03 E0= -.62852221E+03  d E =-.230380E-03  mag=    20.0000
       N       E                     dE             d eps       ncg     rms          rms(c)
DAV:   1    -0.628522439478E+03   -0.24635E-03   -0.22510E-02 21648   0.304E-01    0.912E-02
DAV:   2    -0.628522395137E+03    0.44341E-04   -0.94925E-04 25728   0.761E-02
  57 F= -.62852240E+03 E0= -.62852240E+03  d E =-.186734E-03  mag=    20.0000
       N       E                     dE             d eps       ncg     rms          rms(c)
DAV:   1    -0.628522470443E+03   -0.30965E-04   -0.74567E-02 21504   0.538E-01    0.878E-02
DAV:   2    -0.628522696821E+03   -0.22638E-03   -0.25208E-03 28176   0.119E-01    0.856E-02
DAV:   3    -0.628522686472E+03    0.10350E-04   -0.11197E-04 13032   0.336E-02
  58 F= -.62852269E+03 E0= -.62852269E+03  d E =-.291335E-03  mag=    20.0000
       N       E                     dE             d eps       ncg     rms          rms(c)
DAV:   1    -0.628522754160E+03   -0.57339E-04   -0.24987E-03 21024   0.100E-01    0.409E-02
DAV:   2    -0.628522746696E+03    0.74640E-05   -0.12746E-04 12564   0.302E-02
  59 F= -.62852275E+03 E0= -.62852275E+03  d E =-.602248E-04  mag=    20.0000
       N       E                     dE             d eps       ncg     rms          rms(c)
DAV:   1    -0.628523097172E+03   -0.34301E-03   -0.50476E-02 21672   0.456E-01    0.131E-01
DAV:   2    -0.628523019162E+03    0.78010E-04   -0.26669E-03 31560   0.120E-01    0.111E-01
DAV:   3    -0.628522956782E+03    0.62380E-04   -0.31689E-04 18756   0.529E-02
  60 F= -.62852296E+03 E0= -.62852296E+03  d E =-.210086E-03  mag=    20.0000
       N       E                     dE             d eps       ncg     rms          rms(c)
DAV:   1    -0.628523076579E+03   -0.57417E-04   -0.35529E-02 21504   0.366E-01    0.649E-02
DAV:   2    -0.628523164466E+03   -0.87887E-04   -0.16509E-03 28020   0.989E-02    0.877E-02
DAV:   3    -0.628523138616E+03    0.25850E-04   -0.12215E-04 13416   0.319E-02
  61 F= -.62852314E+03 E0= -.62852314E+03  d E =-.181834E-03  mag=    20.0000
       N       E                     dE             d eps       ncg     rms          rms(c)
DAV:   1    -0.628523298121E+03   -0.13366E-03   -0.28252E-02 21504   0.330E-01    0.496E-02
DAV:   2    -0.628523369577E+03   -0.71455E-04   -0.99719E-04 26652   0.666E-02
  62 F= -.62852337E+03 E0= -.62852337E+03  d E =-.230960E-03  mag=    20.0000
       N       E                     dE             d eps       ncg     rms          rms(c)
DAV:   1    -0.628523498915E+03   -0.20079E-03   -0.22758E-02 21600   0.301E-01    0.717E-02
DAV:   2    -0.628523523034E+03   -0.24118E-04   -0.76389E-04 23436   0.623E-02
  63 F= -.62852352E+03 E0= -.62852352E+03  d E =-.153457E-03  mag=    20.0000
       N       E                     dE             d eps       ncg     rms          rms(c)
DAV:   1    -0.628523616518E+03   -0.11760E-03   -0.14513E-02 21504   0.236E-01    0.486E-02
DAV:   2    -0.628523652685E+03   -0.36167E-04   -0.38046E-04 16488   0.435E-02
  64 F= -.62852365E+03 E0= -.62852365E+03  d E =-.129651E-03  mag=    20.0000
