       N       E                     dE             d eps       ncg     rms          rms(c)
DAV:   1     0.551249508939E+04    0.55125E+04   -0.19754E+05 21504   0.125E+03
DAV:   2     0.484774545097E+03   -0.50277E+04   -0.46258E+04 22260   0.349E+02
DAV:   3    -0.721532189692E+03   -0.12063E+04   -0.11689E+04 25236   0.178E+02
DAV:   4    -0.824386621514E+03   -0.10285E+03   -0.10139E+03 32112   0.592E+01
DAV:   5    -0.828217080400E+03   -0.38305E+01   -0.37856E+01 33996   0.129E+01
DAV:   6    -0.828384900888E+03   -0.16782E+00   -0.16663E+00 34020   0.238E+00
DAV:   7    -0.828393296953E+03   -0.83961E-02   -0.83670E-02 34092   0.542E-01
DAV:   8    -0.828393834306E+03   -0.53735E-03   -0.53646E-03 28020   0.120E-01
DAV:   9    -0.828393872141E+03   -0.37835E-04   -0.37780E-04 20052   0.366E-02
DAV:  10    -0.828393876302E+03   -0.41616E-05   -0.41476E-05 17652   0.169E-02
DAV:  11    -0.828393877862E+03   -0.15600E-05   -0.15537E-05 16404   0.116E-02
DAV:  12    -0.828393878764E+03   -0.90150E-06   -0.89864E-06 16068   0.875E-03    0.114E+02
DAV:  13    -0.631674911268E+03    0.19672E+03   -0.12690E+03 32076   0.832E+01    0.902E+01
DAV:  14    -0.731567688291E+03   -0.99893E+02   -0.25280E+03 36060   0.134E+02    0.124E+02
DAV:  15    -0.667011678915E+03    0.64556E+02   -0.70679E+02 33216   0.856E+01    0.517E+01
DAV:  16    -0.658924070353E+03    0.80876E+01   -0.14391E+02 33636   0.586E+01    0.542E+01
DAV:  17    -0.650249137966E+03    0.86749E+01   -0.62515E+01 31224   0.162E+01    0.404E+01
DAV:  18    -0.644407095428E+03    0.58420E+01   -0.54883E+01 31656   0.201E+01    0.626E+01
DAV:  19    -0.650752083205E+03   -0.63450E+01   -0.34826E+01 31752   0.224E+01    0.550E+01
DAV:  20    -0.655618229734E+03   -0.48661E+01   -0.57686E+01 31344   0.242E+01    0.467E+01
DAV:  21    -0.657682852740E+03   -0.20646E+01   -0.30451E+02 34728   0.326E+01    0.542E+01
DAV:  22    -0.625919008488E+03    0.31764E+02   -0.13308E+02 32904   0.271E+01    0.129E+01
DAV:  23    -0.628241245306E+03   -0.23222E+01   -0.40518E+01 30696   0.758E+00    0.108E+01
DAV:  24    -0.627066201275E+03    0.11750E+01   -0.25617E+00 30672   0.365E+00    0.890E+00
DAV:  25    -0.624557620520E+03    0.25086E+01   -0.13588E+00 36816   0.572E+00    0.688E+00
DAV:  26    -0.622533101817E+03    0.20245E+01   -0.37973E+00 34884   0.828E+00    0.113E+01
DAV:  27    -0.622550228448E+03   -0.17127E-01   -0.43151E+00 30912   0.336E+00    0.563E+00
DAV:  28    -0.622460384687E+03    0.89844E-01   -0.73429E-01 31320   0.164E+00    0.507E+00
DAV:  29    -0.622374765221E+03    0.85619E-01   -0.65007E-01 34368   0.177E+00    0.807E+00
DAV:  30    -0.622345748701E+03    0.29017E-01   -0.91091E-02 30336   0.692E-01    0.680E+00
DAV:  31    -0.622402862871E+03   -0.57114E-01   -0.21160E-01 33312   0.122E+00    0.886E+00
DAV:  32    -0.622413472445E+03   -0.10610E-01   -0.53918E-02 25428   0.418E-01    0.890E+00
DAV:  33    -0.622401677102E+03    0.11795E-01   -0.44154E-03 34248   0.117E-01    0.890E+00
DAV:  34    -0.622452485450E+03   -0.50808E-01   -0.43739E-02 31320   0.452E-01    0.932E+00
DAV:  35    -0.622444993578E+03    0.74919E-02   -0.79493E-02 32136   0.826E-01    0.934E+00
DAV:  36    -0.622506992195E+03   -0.61999E-01   -0.45650E-01 34548   0.158E+00    0.103E+01
DAV:  37    -0.622244937551E+03    0.26205E+00   -0.14408E+00 33480   0.192E+00    0.779E+00
DAV:  38    -0.622171786798E+03    0.73151E-01   -0.19361E-01 31056   0.836E-01    0.811E+00
DAV:  39    -0.622196287439E+03   -0.24501E-01   -0.12849E+00 34608   0.227E+00    0.889E+00
DAV:  40    -0.622182704596E+03    0.13583E-01   -0.14454E-01 26364   0.684E-01    0.903E+00
DAV:  41    -0.622176780877E+03    0.59237E-02   -0.17629E-02 33648   0.273E-01    0.886E+00
DAV:  42    -0.622069674412E+03    0.10711E+00   -0.71841E-01 33156   0.110E+00    0.754E+00
DAV:  43    -0.622191722357E+03   -0.12205E+00   -0.30471E-01 30300   0.948E-01    0.806E+00
DAV:  44    -0.622265414743E+03   -0.73692E-01   -0.27321E-01 30072   0.893E-01    0.689E+00
DAV:  45    -0.622221342620E+03    0.44072E-01   -0.79351E-01 31068   0.165E+00    0.852E+00
DAV:  46    -0.622254797698E+03   -0.33455E-01   -0.10887E-01 25032   0.622E-01    0.899E+00
DAV:  47    -0.622231927654E+03    0.22870E-01   -0.30853E-02 36480   0.502E-01    0.955E+00
DAV:  48    -0.622188548677E+03    0.43379E-01   -0.21248E-02 29484   0.307E-01    0.924E+00
DAV:  49    -0.622177978566E+03    0.10570E-01   -0.26942E-01 34596   0.115E+00    0.111E+01
DAV:  50    -0.622172268968E+03    0.57096E-02   -0.37865E-02 26232   0.382E-01    0.111E+01
DAV:  51    -0.622176528856E+03   -0.42599E-02   -0.43798E-03 31980   0.126E-01    0.110E+01
DAV:  52    -0.622122795069E+03    0.53734E-01   -0.32117E-02 32676   0.483E-01    0.113E+01
DAV:  53    -0.622052584846E+03    0.70210E-01   -0.36433E-01 32064   0.104E+00    0.116E+01
DAV:  54    -0.621889913238E+03    0.16267E+00   -0.24504E-01 29784   0.965E-01    0.125E+01
DAV:  55    -0.621856650897E+03    0.33262E-01   -0.96074E-02 28428   0.615E-01    0.112E+01
DAV:  56    -0.621795078089E+03    0.61573E-01   -0.17567E-01 32700   0.773E-01    0.949E+00
DAV:  57    -0.621731125266E+03    0.63953E-01   -0.29885E-01 30312   0.787E-01    0.743E+00
DAV:  58    -0.622287118058E+03   -0.55599E+00   -0.30974E+00 34992   0.152E+00    0.129E+01
DAV:  59    -0.622276632347E+03    0.10486E-01   -0.14039E-01 30768   0.880E-01    0.127E+01
DAV:  60    -0.622287637700E+03   -0.11005E-01   -0.13904E-01 29976   0.673E-01    0.118E+01
DAV:  61    -0.622306654462E+03   -0.19017E-01   -0.40126E-02 26184   0.347E-01    0.114E+01
DAV:  62    -0.622305054940E+03    0.15995E-02   -0.63513E-03 25092   0.170E-01    0.114E+01
DAV:  63    -0.623062128833E+03   -0.75707E+00   -0.67826E+00 34332   0.770E+00    0.155E+01
DAV:  64    -0.622467195528E+03    0.59493E+00   -0.34646E+00 30012   0.300E+00    0.113E+01
DAV:  65    -0.622449281524E+03    0.17914E-01   -0.69372E-01 31812   0.192E+00    0.102E+01
DAV:  66    -0.622241751619E+03    0.20753E+00   -0.13741E+00 30096   0.196E+00    0.793E+00
DAV:  67    -0.622130880203E+03    0.11087E+00   -0.59371E-01 29220   0.160E+00    0.756E+00
DAV:  68    -0.622007260041E+03    0.12362E+00   -0.52627E-01 30744   0.217E+00    0.663E+00
DAV:  69    -0.621982409157E+03    0.24851E-01   -0.45364E-01 29304   0.154E+00    0.496E+00
DAV:  70    -0.621948172613E+03    0.34237E-01   -0.10990E-01 27792   0.774E-01    0.384E+00
DAV:  71    -0.621908246518E+03    0.39926E-01   -0.45108E-02 33156   0.721E-01    0.314E+00
DAV:  72    -0.621851617947E+03    0.56629E-01   -0.82951E-02 33900   0.908E-01    0.259E+00
DAV:  73    -0.621866317526E+03   -0.14700E-01   -0.14928E-01 30852   0.966E-01    0.270E+00
DAV:  74    -0.621807138233E+03    0.59179E-01   -0.12007E-01 28716   0.918E-01    0.292E+00
DAV:  75    -0.621783346759E+03    0.23791E-01   -0.59197E-02 29388   0.642E-01    0.268E+00
DAV:  76    -0.621764224348E+03    0.19122E-01   -0.21115E-02 29952   0.361E-01    0.257E+00
DAV:  77    -0.621745832260E+03    0.18392E-01   -0.88510E-03 29076   0.245E-01    0.224E+00
DAV:  78    -0.621613231686E+03    0.13260E+00   -0.30118E-01 32964   0.191E+00    0.348E+00
DAV:  79    -0.621629383561E+03   -0.16152E-01   -0.10646E-01 26844   0.678E-01    0.344E+00
DAV:  80    -0.621631829754E+03   -0.24462E-02   -0.13105E-02 28416   0.216E-01    0.309E+00
DAV:  81    -0.621637831973E+03   -0.60022E-02   -0.16217E-02 32340   0.280E-01    0.277E+00
DAV:  82    -0.621653867990E+03   -0.16036E-01   -0.18501E-02 32916   0.411E-01    0.258E+00
DAV:  83    -0.621624687490E+03    0.29180E-01   -0.22896E-01 32148   0.627E-01    0.373E+00
DAV:  84    -0.621615293216E+03    0.93943E-02   -0.19942E-02 28740   0.308E-01    0.319E+00
DAV:  85    -0.621611829188E+03    0.34640E-02   -0.13318E-02 29700   0.260E-01    0.378E+00
DAV:  86    -0.621616880802E+03   -0.50516E-02   -0.46823E-03 26892   0.211E-01    0.400E+00
DAV:  87    -0.621614190943E+03    0.26899E-02   -0.52633E-03 33420   0.213E-01    0.400E+00
DAV:  88    -0.621587357254E+03    0.26834E-01   -0.57271E-02 32112   0.553E-01    0.389E+00
DAV:  89    -0.621581998547E+03    0.53587E-02   -0.29507E-02 26328   0.370E-01    0.432E+00
DAV:  90    -0.621583349698E+03   -0.13512E-02   -0.38308E-03 22812   0.148E-01    0.442E+00
DAV:  91    -0.621578182185E+03    0.51675E-02   -0.18889E-03 30828   0.110E-01    0.435E+00
DAV:  92    -0.621578671843E+03   -0.48966E-03   -0.34105E-04 20388   0.384E-02    0.435E+00
DAV:  93    -0.621583615924E+03   -0.49441E-02   -0.22825E-02 33624   0.337E-01    0.307E+00
DAV:  94    -0.621589451189E+03   -0.58353E-02   -0.15810E-02 31512   0.240E-01    0.431E+00
DAV:  95    -0.621585289120E+03    0.41621E-02   -0.46413E-03 27372   0.137E-01    0.422E+00
DAV:  96    -0.621580752551E+03    0.45366E-02   -0.34511E-03 28656   0.107E-01    0.433E+00
DAV:  97    -0.621600419136E+03   -0.19667E-01   -0.22591E-02 32784   0.348E-01    0.391E+00
DAV:  98    -0.621627493353E+03   -0.27074E-01   -0.23813E-01 32952   0.101E+00    0.270E+00
DAV:  99    -0.621633053773E+03   -0.55604E-02   -0.44373E-02 26928   0.453E-01    0.265E+00
DAV: 100    -0.621634864025E+03   -0.18103E-02   -0.16537E-02 30852   0.239E-01
   1 F= -.62163486E+03 E0= -.62156455E+03  d E =-.621635E+03  mag=    19.7575
       N       E                     dE             d eps       ncg     rms          rms(c)
DAV:   1    -0.623009782504E+03   -0.13767E+01   -0.11310E+03 21504   0.661E+01    0.159E+01
DAV:   2    -0.626636975837E+03   -0.36272E+01   -0.76966E+01 32328   0.273E+01    0.200E+01
DAV:   3    -0.626518371398E+03    0.11860E+00   -0.13709E+01 29772   0.816E+00    0.128E+01
DAV:   4    -0.625535624949E+03    0.98275E+00   -0.23061E+00 32352   0.453E+00    0.889E+00
DAV:   5    -0.625607346667E+03   -0.71722E-01   -0.26478E+00 32124   0.494E+00    0.410E+00
DAV:   6    -0.625542068307E+03    0.65278E-01   -0.65197E-01 29676   0.227E+00    0.256E+00
DAV:   7    -0.625548650837E+03   -0.65825E-02   -0.53072E-01 31764   0.201E+00    0.174E+00
DAV:   8    -0.625547335090E+03    0.13157E-02   -0.96965E-02 31764   0.907E-01    0.795E-01
DAV:   9    -0.625553079897E+03   -0.57448E-02   -0.28656E-02 31728   0.436E-01    0.626E-01
DAV:  10    -0.625554139194E+03   -0.10593E-02   -0.65356E-03 29256   0.219E-01    0.409E-01
DAV:  11    -0.625554340422E+03   -0.20123E-03   -0.64730E-03 32196   0.221E-01    0.256E-01
DAV:  12    -0.625555356245E+03   -0.10158E-02   -0.33089E-03 31116   0.126E-01    0.162E-01
DAV:  13    -0.625555734593E+03   -0.37835E-03   -0.49664E-04 24552   0.721E-02    0.134E-01
DAV:  14    -0.625556152983E+03   -0.41839E-03   -0.35692E-04 19440   0.772E-02    0.985E-02
DAV:  15    -0.625556476604E+03   -0.32362E-03   -0.89900E-04 29328   0.672E-02    0.718E-02
DAV:  16    -0.625556540396E+03   -0.63792E-04   -0.16232E-04 14232   0.446E-02
   2 F= -.62555654E+03 E0= -.62555654E+03  d E =-.392168E+01  mag=    19.8800
       N       E                     dE             d eps       ncg     rms          rms(c)
DAV:   1    -0.627812232032E+03   -0.22558E+01   -0.86656E+01 21504   0.198E+01    0.958E+00
DAV:   2    -0.626949942218E+03    0.86229E+00   -0.94050E+00 31164   0.903E+00    0.101E+01
DAV:   3    -0.626679281739E+03    0.27066E+00   -0.22867E+00 30888   0.365E+00    0.518E+00
DAV:   4    -0.626637681555E+03    0.41600E-01   -0.51171E-01 32556   0.201E+00    0.389E+00
DAV:   5    -0.626605416864E+03    0.32265E-01   -0.15226E-01 31068   0.145E+00    0.191E+00
DAV:   6    -0.626599438506E+03    0.59784E-02   -0.11282E-01 31836   0.730E-01    0.595E-01
DAV:   7    -0.626598858624E+03    0.57988E-03   -0.19934E-02 31764   0.428E-01    0.346E-01
DAV:   8    -0.626598860397E+03   -0.17724E-05   -0.52930E-03 32256   0.223E-01    0.276E-01
DAV:   9    -0.626598800864E+03    0.59533E-04   -0.16445E-03 30828   0.109E-01    0.134E-01
DAV:  10    -0.626598753591E+03    0.47273E-04   -0.96916E-04 29616   0.813E-02
   3 F= -.62659875E+03 E0= -.62659875E+03  d E =-.104221E+01  mag=    19.9191
       N       E                     dE             d eps       ncg     rms          rms(c)
DAV:   1    -0.626416403358E+03    0.18240E+00   -0.13007E+02 21504   0.224E+01    0.596E+00
DAV:   2    -0.626885975939E+03   -0.46957E+00   -0.61860E+00 29196   0.708E+00    0.674E+00
DAV:   3    -0.626844738616E+03    0.41237E-01   -0.73992E-01 27912   0.214E+00    0.388E+00
DAV:   4    -0.626804519465E+03    0.40219E-01   -0.26881E-01 31776   0.136E+00    0.300E+00
DAV:   5    -0.626793852136E+03    0.10667E-01   -0.85960E-02 27744   0.944E-01    0.116E+00
DAV:   6    -0.626791874084E+03    0.19781E-02   -0.75714E-02 31428   0.639E-01    0.523E-01
DAV:   7    -0.626791041247E+03    0.83284E-03   -0.25208E-02 29976   0.399E-01    0.452E-01
DAV:   8    -0.626790933122E+03    0.10813E-03   -0.38144E-03 30744   0.238E-01    0.201E-01
DAV:   9    -0.626790673988E+03    0.25913E-03   -0.20248E-03 30828   0.114E-01    0.111E-01
DAV:  10    -0.626790686891E+03   -0.12902E-04   -0.72760E-04 25452   0.643E-02
   4 F= -.62679069E+03 E0= -.62679069E+03  d E =-.191933E+00  mag=    19.9452
       N       E                     dE             d eps       ncg     rms          rms(c)
DAV:   1    -0.626898699228E+03   -0.10803E+00   -0.12262E+00 21792   0.219E+00    0.943E-01
DAV:   2    -0.626897279198E+03    0.14200E-02   -0.11173E-01 29136   0.918E-01    0.111E+00
DAV:   3    -0.626894929810E+03    0.23494E-02   -0.17288E-02 28476   0.327E-01    0.762E-01
DAV:   4    -0.626893997564E+03    0.93225E-03   -0.94186E-03 30756   0.213E-01    0.480E-01
DAV:   5    -0.626893512143E+03    0.48542E-03   -0.22083E-03 30564   0.176E-01    0.228E-01
DAV:   6    -0.626893527064E+03   -0.14921E-04   -0.12810E-03 30480   0.105E-01    0.124E-01
DAV:   7    -0.626893525373E+03    0.16909E-05   -0.17222E-04 15456   0.313E-02
   5 F= -.62689353E+03 E0= -.62689353E+03  d E =-.102838E+00  mag=    19.9585
       N       E                     dE             d eps       ncg     rms          rms(c)
DAV:   1    -0.626988719133E+03   -0.95192E-01   -0.46276E+01 21504   0.136E+01    0.232E+00
DAV:   2    -0.627097015608E+03   -0.10830E+00   -0.13865E+00 27084   0.270E+00    0.161E+00
DAV:   3    -0.627093959183E+03    0.30564E-02   -0.78186E-02 30468   0.738E-01    0.116E+00
DAV:   4    -0.627089022648E+03    0.49365E-02   -0.11455E-02 31824   0.266E-01    0.660E-01
DAV:   5    -0.627085502604E+03    0.35200E-02   -0.99698E-03 30288   0.243E-01    0.226E-01
DAV:   6    -0.627085397545E+03    0.10506E-03   -0.35454E-03 30276   0.169E-01    0.125E-01
DAV:   7    -0.627085435937E+03   -0.38392E-04   -0.11645E-03 29388   0.728E-02    0.671E-02
DAV:   8    -0.627085421763E+03    0.14174E-04   -0.11336E-04 14640   0.391E-02
   6 F= -.62708542E+03 E0= -.62708542E+03  d E =-.191896E+00  mag=    19.9695
       N       E                     dE             d eps       ncg     rms          rms(c)
DAV:   1    -0.626522982086E+03    0.56245E+00   -0.23782E+02 21504   0.306E+01    0.628E+00
DAV:   2    -0.627229121317E+03   -0.70614E+00   -0.88164E+00 28428   0.712E+00    0.654E+00
DAV:   3    -0.627155163513E+03    0.73958E-01   -0.75823E-01 29736   0.214E+00    0.396E+00
DAV:   4    -0.627109293487E+03    0.45870E-01   -0.27856E-01 30948   0.116E+00    0.286E+00
DAV:   5    -0.627089914032E+03    0.19379E-01   -0.96507E-02 27348   0.808E-01    0.100E+00
DAV:   6    -0.627090317987E+03   -0.40396E-03   -0.49829E-02 32100   0.552E-01    0.381E-01
DAV:   7    -0.627090230102E+03    0.87886E-04   -0.11921E-02 31008   0.270E-01    0.307E-01
DAV:   8    -0.627090202043E+03    0.28059E-04   -0.30008E-03 31872   0.159E-01    0.184E-01
DAV:   9    -0.627090132227E+03    0.69816E-04   -0.94069E-04 29160   0.818E-02
   7 F= -.62709013E+03 E0= -.62709013E+03  d E =-.471046E-02  mag=    19.9787
       N       E                     dE             d eps       ncg     rms          rms(c)
DAV:   1    -0.627208367783E+03   -0.11817E+00   -0.58460E+01 21504   0.144E+01    0.377E+00
DAV:   2    -0.627374742332E+03   -0.16637E+00   -0.32064E+00 29244   0.423E+00    0.475E+00
DAV:   3    -0.627344247598E+03    0.30495E-01   -0.30850E-01 27852   0.125E+00    0.358E+00
DAV:   4    -0.627302855736E+03    0.41392E-01   -0.26502E-01 29724   0.106E+00    0.275E+00
DAV:   5    -0.627306862243E+03   -0.40065E-02   -0.16708E-01 29640   0.925E-01    0.141E+00
DAV:   6    -0.627291376802E+03    0.15485E-01   -0.66142E-02 31908   0.648E-01    0.896E-01
DAV:   7    -0.627287799138E+03    0.35777E-02   -0.66794E-02 28056   0.497E-01    0.449E-01
DAV:   8    -0.627288058232E+03   -0.25909E-03   -0.69173E-03 29328   0.245E-01    0.228E-01
DAV:   9    -0.627288217121E+03   -0.15889E-03   -0.18141E-03 30636   0.105E-01    0.173E-01
DAV:  10    -0.627287921208E+03    0.29591E-03   -0.77559E-04 25284   0.772E-02    0.110E-01
DAV:  11    -0.627287868917E+03    0.52291E-04   -0.52924E-04 20196   0.471E-02
   8 F= -.62728787E+03 E0= -.62728787E+03  d E =-.197737E+00  mag=    19.9859
       N       E                     dE             d eps       ncg     rms          rms(c)
DAV:   1    -0.627349283024E+03   -0.61362E-01   -0.17385E+01 21504   0.834E+00    0.221E+00
DAV:   2    -0.627357437454E+03   -0.81544E-02   -0.79549E-01 30012   0.230E+00    0.218E+00
DAV:   3    -0.627348669447E+03    0.87680E-02   -0.93986E-02 29436   0.805E-01    0.120E+00
DAV:   4    -0.627343696914E+03    0.49725E-02   -0.32468E-02 31488   0.427E-01    0.884E-01
DAV:   5    -0.627342470856E+03    0.12261E-02   -0.82517E-03 28104   0.251E-01    0.388E-01
DAV:   6    -0.627342163311E+03    0.30754E-03   -0.67582E-03 32556   0.206E-01    0.122E-01
DAV:   7    -0.627342248237E+03   -0.84925E-04   -0.14746E-03 28908   0.976E-02    0.991E-02
DAV:   8    -0.627342230249E+03    0.17987E-04   -0.19436E-04 16488   0.497E-02
   9 F= -.62734223E+03 E0= -.62734223E+03  d E =-.543613E-01  mag=    19.9898
       N       E                     dE             d eps       ncg     rms          rms(c)
DAV:   1    -0.627364195721E+03   -0.21947E-01   -0.11002E+00 21528   0.209E+00    0.708E-01
DAV:   2    -0.627361021398E+03    0.31743E-02   -0.64326E-02 31068   0.660E-01    0.633E-01
DAV:   3    -0.627360000933E+03    0.10205E-02   -0.11009E-02 30276   0.277E-01    0.338E-01
DAV:   4    -0.627359553795E+03    0.44714E-03   -0.31475E-03 31632   0.137E-01    0.237E-01
DAV:   5    -0.627359449157E+03    0.10464E-03   -0.78550E-04 26160   0.772E-02    0.117E-01
DAV:   6    -0.627359395199E+03    0.53958E-04   -0.56770E-04 25836   0.643E-02
  10 F= -.62735940E+03 E0= -.62735940E+03  d E =-.171649E-01  mag=    19.9919
       N       E                     dE             d eps       ncg     rms          rms(c)
DAV:   1    -0.627362840513E+03   -0.33914E-02   -0.71147E+00 21504   0.527E+00    0.677E-01
DAV:   2    -0.627380214051E+03   -0.17374E-01   -0.20882E-01 27300   0.103E+00    0.651E-01
DAV:   3    -0.627379443674E+03    0.77038E-03   -0.11460E-02 29952   0.264E-01    0.431E-01
DAV:   4    -0.627378773393E+03    0.67028E-03   -0.23923E-03 30480   0.110E-01    0.302E-01
DAV:   5    -0.627378394697E+03    0.37870E-03   -0.12483E-03 27516   0.940E-02    0.139E-01
DAV:   6    -0.627378387749E+03    0.69485E-05   -0.95670E-04 29772   0.792E-02
  11 F= -.62737839E+03 E0= -.62737839E+03  d E =-.189926E-01  mag=    19.9936
       N       E                     dE             d eps       ncg     rms          rms(c)
DAV:   1    -0.627387807449E+03   -0.94128E-02   -0.18271E+00 21528   0.262E+00    0.568E-01
DAV:   2    -0.627393639675E+03   -0.58322E-02   -0.76376E-02 28416   0.700E-01    0.688E-01
DAV:   3    -0.627393069194E+03    0.57048E-03   -0.78368E-03 28092   0.224E-01    0.469E-01
DAV:   4    -0.627392583130E+03    0.48606E-03   -0.22883E-03 28020   0.104E-01    0.360E-01
DAV:   5    -0.627392356485E+03    0.22664E-03   -0.11293E-03 28992   0.114E-01    0.160E-01
DAV:   6    -0.627392350230E+03    0.62547E-05   -0.13975E-03 30504   0.930E-02    0.676E-02
DAV:   7    -0.627392331331E+03    0.18899E-04   -0.44272E-04 21468   0.492E-02
  12 F= -.62739233E+03 E0= -.62739233E+03  d E =-.139436E-01  mag=    19.9951
       N       E                     dE             d eps       ncg     rms          rms(c)
DAV:   1    -0.627397159273E+03   -0.48090E-02   -0.22941E+00 21528   0.299E+00    0.611E-01
DAV:   2    -0.627399885308E+03   -0.27260E-02   -0.83486E-02 29088   0.688E-01    0.545E-01
DAV:   3    -0.627399421025E+03    0.46428E-03   -0.94551E-03 29448   0.255E-01    0.305E-01
DAV:   4    -0.627399011492E+03    0.40953E-03   -0.25154E-03 31140   0.127E-01    0.223E-01
DAV:   5    -0.627398917883E+03    0.93608E-04   -0.81255E-04 26172   0.744E-02
  13 F= -.62739892E+03 E0= -.62739892E+03  d E =-.658655E-02  mag=    19.9959
       N       E                     dE             d eps       ncg     rms          rms(c)
DAV:   1    -0.627408901563E+03   -0.98901E-02   -0.11922E+00 21504   0.214E+00    0.517E-01
DAV:   2    -0.627410483878E+03   -0.15823E-02   -0.55488E-02 29412   0.614E-01    0.606E-01
DAV:   3    -0.627409907050E+03    0.57683E-03   -0.65431E-03 29616   0.199E-01    0.393E-01
DAV:   4    -0.627409476127E+03    0.43092E-03   -0.27336E-03 30732   0.117E-01    0.303E-01
DAV:   5    -0.627409395803E+03    0.80324E-04   -0.79980E-04 26052   0.779E-02
  14 F= -.62740940E+03 E0= -.62740940E+03  d E =-.104779E-01  mag=    19.9967
       N       E                     dE             d eps       ncg     rms          rms(c)
DAV:   1    -0.627368864768E+03    0.40611E-01   -0.31312E+01 21504   0.110E+01    0.121E+00
DAV:   2    -0.627448458205E+03   -0.79593E-01   -0.84218E-01 25680   0.195E+00    0.913E-01
DAV:   3    -0.627447753605E+03    0.70460E-03   -0.32972E-02 30156   0.413E-01    0.513E-01
DAV:   4    -0.627445691320E+03    0.20623E-02   -0.49678E-03 30864   0.204E-01    0.394E-01
DAV:   5    -0.627444816050E+03    0.87527E-03   -0.44668E-03 26688   0.161E-01    0.143E-01
DAV:   6    -0.627444892771E+03   -0.76722E-04   -0.15172E-03 30336   0.961E-02    0.885E-02
DAV:   7    -0.627444873376E+03    0.19395E-04   -0.25335E-04 14904   0.439E-02
  15 F= -.62744487E+03 E0= -.62744487E+03  d E =-.354776E-01  mag=    19.9974
       N       E                     dE             d eps       ncg     rms          rms(c)
DAV:   1    -0.627450603810E+03   -0.57110E-02   -0.12623E+00 21756   0.226E+00    0.889E-01
DAV:   2    -0.627445578217E+03    0.50256E-02   -0.98518E-02 31440   0.862E-01    0.948E-01
DAV:   3    -0.627443395620E+03    0.21826E-02   -0.13665E-02 30900   0.310E-01    0.489E-01
DAV:   4    -0.627442683525E+03    0.71210E-03   -0.58000E-03 31260   0.167E-01    0.333E-01
DAV:   5    -0.627442536127E+03    0.14740E-03   -0.14321E-03 29496   0.103E-01    0.157E-01
DAV:   6    -0.627442450938E+03    0.85189E-04   -0.11655E-03 30324   0.847E-02    0.410E-02
DAV:   7    -0.627442453796E+03   -0.28582E-05   -0.14693E-04 14400   0.364E-02
  16 F= -.62744245E+03 E0= -.62744245E+03  d E =0.241958E-02  mag=    19.9980
       N       E                     dE             d eps       ncg     rms          rms(c)
DAV:   1    -0.627447039743E+03   -0.45888E-02   -0.55268E+00 21504   0.463E+00    0.642E-01
DAV:   2    -0.627459328868E+03   -0.12289E-01   -0.16747E-01 27456   0.935E-01    0.633E-01
DAV:   3    -0.627458680249E+03    0.64862E-03   -0.10527E-02 28416   0.267E-01    0.317E-01
DAV:   4    -0.627458184451E+03    0.49580E-03   -0.18729E-03 31140   0.121E-01    0.264E-01
DAV:   5    -0.627458028925E+03    0.15553E-03   -0.81659E-04 25860   0.724E-02    0.127E-01
DAV:   6    -0.627458004788E+03    0.24137E-04   -0.44374E-04 22428   0.526E-02
  17 F= -.62745800E+03 E0= -.62745800E+03  d E =-.155510E-01  mag=    19.9984
       N       E                     dE             d eps       ncg     rms          rms(c)
DAV:   1    -0.627457602544E+03    0.42638E-03   -0.36551E-01 21528   0.115E+00    0.348E-01
DAV:   2    -0.627458837819E+03   -0.12353E-02   -0.16760E-02 28008   0.325E-01    0.351E-01
DAV:   3    -0.627458737811E+03    0.10001E-03   -0.24503E-03 29460   0.123E-01    0.240E-01
DAV:   4    -0.627458631171E+03    0.10664E-03   -0.87616E-04 25572   0.609E-02    0.169E-01
DAV:   5    -0.627458588769E+03    0.42402E-04   -0.22765E-04 17760   0.515E-02
  18 F= -.62745859E+03 E0= -.62745859E+03  d E =-.583981E-03  mag=    19.9987
       N       E                     dE             d eps       ncg     rms          rms(c)
DAV:   1    -0.627461739289E+03   -0.31081E-02   -0.33843E-01 21528   0.111E+00    0.268E-01
DAV:   2    -0.627462561090E+03   -0.82180E-03   -0.13527E-02 27828   0.293E-01    0.297E-01
DAV:   3    -0.627462468911E+03    0.92179E-04   -0.15677E-03 28956   0.971E-02    0.217E-01
DAV:   4    -0.627462350107E+03    0.11880E-03   -0.54365E-04 22956   0.514E-02    0.159E-01
DAV:   5    -0.627462292423E+03    0.57684E-04   -0.25088E-04 18852   0.602E-02
  19 F= -.62746229E+03 E0= -.62746229E+03  d E =-.370365E-02  mag=    19.9990
       N       E                     dE             d eps       ncg     rms          rms(c)
DAV:   1    -0.627465029777E+03   -0.26797E-02   -0.13653E+00 21528   0.231E+00    0.415E-01
DAV:   2    -0.627467072686E+03   -0.20429E-02   -0.44398E-02 28104   0.486E-01    0.346E-01
DAV:   3    -0.627466904252E+03    0.16843E-03   -0.39141E-03 29316   0.171E-01    0.178E-01
DAV:   4    -0.627466744352E+03    0.15990E-03   -0.87228E-04 26760   0.736E-02    0.129E-01
DAV:   5    -0.627466701024E+03    0.43328E-04   -0.26917E-04 16512   0.449E-02
  20 F= -.62746670E+03 E0= -.62746670E+03  d E =-.440860E-02  mag=    19.9992
       N       E                     dE             d eps       ncg     rms          rms(c)
DAV:   1    -0.627471469851E+03   -0.47255E-02   -0.61159E-01 21528   0.155E+00    0.383E-01
DAV:   2    -0.627471934706E+03   -0.46486E-03   -0.26266E-02 29724   0.415E-01    0.387E-01
DAV:   3    -0.627471652259E+03    0.28245E-03   -0.31135E-03 29664   0.151E-01    0.205E-01
DAV:   4    -0.627471519835E+03    0.13242E-03   -0.91428E-04 27096   0.723E-02    0.152E-01
DAV:   5    -0.627471495567E+03    0.24268E-04   -0.19513E-04 15588   0.417E-02
  21 F= -.62747150E+03 E0= -.62747150E+03  d E =-.479454E-02  mag=    19.9993
       N       E                     dE             d eps       ncg     rms          rms(c)
DAV:   1    -0.627473128923E+03   -0.16091E-02   -0.90299E-01 21504   0.186E+00    0.387E-01
DAV:   2    -0.627475217397E+03   -0.20885E-02   -0.33922E-02 29040   0.444E-01    0.404E-01
DAV:   3    -0.627474881675E+03    0.33572E-03   -0.35366E-03 29448   0.152E-01    0.239E-01
DAV:   4    -0.627474751484E+03    0.13019E-03   -0.10022E-03 25776   0.658E-02    0.168E-01
DAV:   5    -0.627474687158E+03    0.64325E-04   -0.18712E-04 16272   0.483E-02
  22 F= -.62747469E+03 E0= -.62747469E+03  d E =-.319159E-02  mag=    19.9994
       N       E                     dE             d eps       ncg     rms          rms(c)
DAV:   1    -0.627477505830E+03   -0.27543E-02   -0.38708E-01 21528   0.121E+00    0.286E-01
DAV:   2    -0.627478614152E+03   -0.11083E-02   -0.18819E-02 28392   0.363E-01    0.369E-01
DAV:   3    -0.627478418065E+03    0.19609E-03   -0.20919E-03 26964   0.116E-01    0.258E-01
DAV:   4    -0.627478249778E+03    0.16829E-03   -0.71328E-04 23760   0.582E-02    0.198E-01
DAV:   5    -0.627478184480E+03    0.65297E-04   -0.25569E-04 19440   0.574E-02
  23 F= -.62747818E+03 E0= -.62747818E+03  d E =-.349732E-02  mag=    19.9995
       N       E                     dE             d eps       ncg     rms          rms(c)
DAV:   1    -0.627480337366E+03   -0.20876E-02   -0.11046E+00 21504   0.206E+00    0.275E-01
DAV:   2    -0.627482846194E+03   -0.25088E-02   -0.30898E-02 26400   0.390E-01    0.223E-01
DAV:   3    -0.627482851470E+03   -0.52761E-05   -0.20569E-03 29760   0.113E-01    0.124E-01
DAV:   4    -0.627482760711E+03    0.90759E-04   -0.28366E-04 18744   0.466E-02
  24 F= -.62748276E+03 E0= -.62748276E+03  d E =-.457623E-02  mag=    19.9996
       N       E                     dE             d eps       ncg     rms          rms(c)
DAV:   1    -0.627485136227E+03   -0.22848E-02   -0.49159E-01 21516   0.137E+00    0.193E-01
DAV:   2    -0.627486408219E+03   -0.12720E-02   -0.15349E-02 29088   0.299E-01    0.225E-01
DAV:   3    -0.627486321697E+03    0.86522E-04   -0.10941E-03 27840   0.860E-02    0.129E-01
DAV:   4    -0.627486262568E+03    0.59129E-04   -0.22494E-04 17100   0.379E-02
  25 F= -.62748626E+03 E0= -.62748626E+03  d E =-.350186E-02  mag=    19.9997
       N       E                     dE             d eps       ncg     rms          rms(c)
DAV:   1    -0.627435413954E+03    0.50908E-01   -0.12785E+01 21504   0.697E+00    0.802E-01
DAV:   2    -0.627469045375E+03   -0.33631E-01   -0.33263E-01 24216   0.120E+00    0.509E-01
DAV:   3    -0.627469509990E+03   -0.46462E-03   -0.11588E-02 30708   0.227E-01    0.254E-01
DAV:   4    -0.627468685308E+03    0.82468E-03   -0.17459E-03 30564   0.121E-01    0.208E-01
DAV:   5    -0.627468410057E+03    0.27525E-03   -0.14565E-03 25488   0.868E-02    0.758E-02
DAV:   6    -0.627468432758E+03   -0.22700E-04   -0.31907E-04 18264   0.435E-02
  26 F= -.62746843E+03 E0= -.62746843E+03  d E =0.178298E-01  mag=    19.9997
       N       E                     dE             d eps       ncg     rms          rms(c)
DAV:   1    -0.627470491375E+03   -0.20813E-02   -0.27566E+00 21504   0.326E+00    0.458E-01
DAV:   2    -0.627477188527E+03   -0.66972E-02   -0.80677E-02 26832   0.637E-01    0.439E-01
DAV:   3    -0.627476938198E+03    0.25033E-03   -0.43380E-03 28080   0.174E-01    0.211E-01
DAV:   4    -0.627476696999E+03    0.24120E-03   -0.70212E-04 25596   0.722E-02    0.182E-01
DAV:   5    -0.627476627724E+03    0.69276E-04   -0.39711E-04 19296   0.488E-02
  27 F= -.62747663E+03 E0= -.62747663E+03  d E =-.819497E-02  mag=    19.9998
       N       E                     dE             d eps       ncg     rms          rms(c)
DAV:   1    -0.627476002584E+03    0.69442E-03   -0.28730E-02 21600   0.337E-01    0.583E-02
DAV:   2    -0.627476068110E+03   -0.65526E-04   -0.99807E-04 25632   0.769E-02
  28 F= -.62747607E+03 E0= -.62747607E+03  d E =0.559614E-03  mag=    19.9998
       N       E                     dE             d eps       ncg     rms          rms(c)
DAV:   1    -0.627479221696E+03   -0.32191E-02   -0.12370E+00 21504   0.218E+00    0.324E-01
DAV:   2    -0.627481306977E+03   -0.20853E-02   -0.36528E-02 26532   0.409E-01    0.225E-01
DAV:   3    -0.627481146785E+03    0.16019E-03   -0.23718E-03 28752   0.133E-01    0.929E-02
DAV:   4    -0.627481059080E+03    0.87705E-04   -0.37246E-04 19740   0.522E-02
  29 F= -.62748106E+03 E0= -.62748106E+03  d E =-.499097E-02  mag=    19.9998
       N       E                     dE             d eps       ncg     rms          rms(c)
DAV:   1    -0.627483148559E+03   -0.20018E-02   -0.11498E+00 21504   0.209E+00    0.372E-01
DAV:   2    -0.627486024072E+03   -0.28755E-02   -0.37786E-02 27816   0.465E-01    0.384E-01
DAV:   3    -0.627485814719E+03    0.20935E-03   -0.31871E-03 28980   0.145E-01    0.208E-01
DAV:   4    -0.627485690175E+03    0.12454E-03   -0.67404E-04 25284   0.664E-02    0.162E-01
DAV:   5    -0.627485648625E+03    0.41550E-04   -0.25952E-04 17928   0.431E-02
  30 F= -.62748565E+03 E0= -.62748565E+03  d E =-.458955E-02  mag=    19.9998
       N       E                     dE             d eps       ncg     rms          rms(c)
DAV:   1    -0.627486809370E+03   -0.11192E-02   -0.42867E-02 21720   0.404E-01    0.766E-02
DAV:   2    -0.627486901181E+03   -0.91811E-04   -0.14936E-03 27696   0.945E-02    0.793E-02
DAV:   3    -0.627486884296E+03    0.16884E-04   -0.11659E-04 13824   0.315E-02
  31 F= -.62748688E+03 E0= -.62748688E+03  d E =-.123567E-02  mag=    19.9999
       N       E                     dE             d eps       ncg     rms          rms(c)
DAV:   1    -0.627487730063E+03   -0.82888E-03   -0.24822E+00 21504   0.308E+00    0.372E-01
DAV:   2    -0.627493725303E+03   -0.59952E-02   -0.66134E-02 25872   0.543E-01    0.245E-01
DAV:   3    -0.627493731763E+03   -0.64604E-05   -0.26083E-03 31032   0.124E-01    0.151E-01
DAV:   4    -0.627493585939E+03    0.14582E-03   -0.27135E-04 18204   0.517E-02    0.106E-01
DAV:   5    -0.627493505275E+03    0.80664E-04   -0.53081E-04 21888   0.539E-02
  32 F= -.62749351E+03 E0= -.62749351E+03  d E =-.662098E-02  mag=    19.9999
       N       E                     dE             d eps       ncg     rms          rms(c)
DAV:   1    -0.627494492918E+03   -0.90698E-03   -0.24137E+00 21504   0.301E+00    0.407E-01
DAV:   2    -0.627500700399E+03   -0.62075E-02   -0.61792E-02 25668   0.522E-01    0.263E-01
DAV:   3    -0.627500804557E+03   -0.10416E-03   -0.25956E-03 30612   0.122E-01    0.169E-01
DAV:   4    -0.627500664091E+03    0.14047E-03   -0.25979E-04 17928   0.474E-02    0.106E-01
DAV:   5    -0.627500580690E+03    0.83401E-04   -0.47308E-04 20724   0.472E-02
  33 F= -.62750058E+03 E0= -.62750058E+03  d E =-.707542E-02  mag=    19.9999
       N       E                     dE             d eps       ncg     rms          rms(c)
DAV:   1    -0.627498207532E+03    0.24566E-02   -0.36484E+00 21504   0.372E+00    0.524E-01
DAV:   2    -0.627508057618E+03   -0.98501E-02   -0.10418E-01 26664   0.729E-01    0.502E-01
DAV:   3    -0.627508024230E+03    0.33388E-04   -0.73187E-03 29256   0.204E-01    0.270E-01
DAV:   4    -0.627507729302E+03    0.29493E-03   -0.16146E-03 30096   0.109E-01    0.223E-01
DAV:   5    -0.627507656390E+03    0.72913E-04   -0.98101E-04 26424   0.745E-02
  34 F= -.62750766E+03 E0= -.62750766E+03  d E =-.707570E-02  mag=    19.9999
       N       E                     dE             d eps       ncg     rms          rms(c)
DAV:   1    -0.627509887406E+03   -0.21581E-02   -0.92245E-01 21504   0.187E+00    0.271E-01
DAV:   2    -0.627512327761E+03   -0.24404E-02   -0.27779E-02 27960   0.399E-01    0.301E-01
DAV:   3    -0.627512261375E+03    0.66386E-04   -0.23344E-03 29436   0.115E-01    0.174E-01
DAV:   4    -0.627512168484E+03    0.92890E-04   -0.44973E-04 21156   0.589E-02
  35 F= -.62751217E+03 E0= -.62751217E+03  d E =-.451209E-02  mag=    19.9999
       N       E                     dE             d eps       ncg     rms          rms(c)
DAV:   1    -0.627465504895E+03    0.46756E-01   -0.12264E+01 21504   0.681E+00    0.804E-01
DAV:   2    -0.627497956029E+03   -0.32451E-01   -0.31626E-01 23328   0.114E+00    0.431E-01
DAV:   3    -0.627498458684E+03   -0.50265E-03   -0.99048E-03 31740   0.210E-01    0.251E-01
DAV:   4    -0.627497936289E+03    0.52239E-03   -0.94554E-04 27504   0.758E-02    0.157E-01
DAV:   5    -0.627497508894E+03    0.42740E-03   -0.84832E-04 24432   0.743E-02    0.662E-02
DAV:   6    -0.627497538864E+03   -0.29971E-04   -0.44548E-04 20808   0.443E-02
  36 F= -.62749754E+03 E0= -.62749754E+03  d E =0.146296E-01  mag=    19.9999
       N       E                     dE             d eps       ncg     rms          rms(c)
DAV:   1    -0.627361054907E+03    0.13645E+00   -0.64717E+01 21504   0.156E+01    0.179E+00
DAV:   2    -0.627531718040E+03   -0.17066E+00   -0.16652E+00 23304   0.262E+00    0.961E-01
DAV:   3    -0.627533533858E+03   -0.18158E-02   -0.54131E-02 31272   0.467E-01    0.519E-01
DAV:   4    -0.627530079669E+03    0.34542E-02   -0.71355E-03 29796   0.203E-01    0.329E-01
DAV:   5    -0.627528380032E+03    0.16996E-02   -0.51505E-03 25752   0.174E-01    0.124E-01
DAV:   6    -0.627528496418E+03   -0.11639E-03   -0.20626E-03 29148   0.950E-02    0.769E-02
DAV:   7    -0.627528502333E+03   -0.59150E-05   -0.22008E-04 15960   0.379E-02
  37 F= -.62752850E+03 E0= -.62752850E+03  d E =-.309635E-01  mag=    20.0000
       N       E                     dE             d eps       ncg     rms          rms(c)
DAV:   1    -0.627526958778E+03    0.15376E-02   -0.23611E+00 21504   0.300E+00    0.439E-01
DAV:   2    -0.627532767347E+03   -0.58086E-02   -0.70232E-02 26376   0.574E-01    0.361E-01
DAV:   3    -0.627532662199E+03    0.10515E-03   -0.36317E-03 29184   0.138E-01    0.216E-01
DAV:   4    -0.627532446578E+03    0.21562E-03   -0.21847E-03 30828   0.114E-01    0.156E-01
DAV:   5    -0.627532414956E+03    0.31622E-04   -0.59821E-04 24696   0.611E-02
  38 F= -.62753241E+03 E0= -.62753241E+03  d E =-.391262E-02  mag=    20.0000
       N       E                     dE             d eps       ncg     rms          rms(c)
DAV:   1    -0.627534557267E+03   -0.21107E-02   -0.52445E-01 21504   0.142E+00    0.197E-01
DAV:   2    -0.627535848407E+03   -0.12911E-02   -0.15367E-02 26328   0.291E-01    0.199E-01
DAV:   3    -0.627535828481E+03    0.19926E-04   -0.10753E-03 28044   0.801E-02    0.125E-01
DAV:   4    -0.627535761767E+03    0.66715E-04   -0.20835E-04 16656   0.415E-02
  39 F= -.62753576E+03 E0= -.62753576E+03  d E =-.334681E-02  mag=    20.0000
       N       E                     dE             d eps       ncg     rms          rms(c)
DAV:   1    -0.627537776960E+03   -0.19485E-02   -0.79498E-01 21504   0.177E+00    0.376E-01
DAV:   2    -0.627538050176E+03   -0.27322E-03   -0.25723E-02 27180   0.371E-01    0.237E-01
DAV:   3    -0.627537915682E+03    0.13449E-03   -0.25949E-03 30024   0.147E-01    0.154E-01
DAV:   4    -0.627537832455E+03    0.83227E-04   -0.74858E-04 26388   0.588E-02
  40 F= -.62753783E+03 E0= -.62753783E+03  d E =-.207069E-02  mag=    20.0000
       N       E                     dE             d eps       ncg     rms          rms(c)
DAV:   1    -0.627539627812E+03   -0.17121E-02   -0.12247E-01 21744   0.702E-01    0.226E-01
DAV:   2    -0.627539308638E+03    0.31917E-03   -0.56985E-03 29400   0.187E-01    0.159E-01
DAV:   3    -0.627539243782E+03    0.64856E-04   -0.66910E-04 24828   0.855E-02
  41 F= -.62753924E+03 E0= -.62753924E+03  d E =-.141133E-02  mag=    20.0000
       N       E                     dE             d eps       ncg     rms          rms(c)
DAV:   1    -0.627540164855E+03   -0.85622E-03   -0.17857E-01 21504   0.826E-01    0.138E-01
DAV:   2    -0.627540498835E+03   -0.33398E-03   -0.51548E-03 27060   0.155E-01    0.907E-02
DAV:   3    -0.627540470962E+03    0.27873E-04   -0.22189E-04 18300   0.447E-02
  42 F= -.62754047E+03 E0= -.62754047E+03  d E =-.122718E-02  mag=    20.0000
       N       E                     dE             d eps       ncg     rms          rms(c)
DAV:   1    -0.627541069955E+03   -0.57112E-03   -0.62245E-02 21672   0.484E-01    0.662E-02
DAV:   2    -0.627541209488E+03   -0.13953E-03   -0.15633E-03 24732   0.822E-02    0.446E-02
DAV:   3    -0.627541203777E+03    0.57105E-05   -0.45384E-05 12396   0.192E-02
  43 F= -.62754120E+03 E0= -.62754120E+03  d E =-.732815E-03  mag=    20.0000
       N       E                     dE             d eps       ncg     rms          rms(c)
DAV:   1    -0.627541201340E+03    0.81476E-05   -0.57162E-03 21960   0.152E-01    0.404E-02
DAV:   2    -0.627541203775E+03   -0.24354E-05   -0.16253E-04 14892   0.398E-02
  44 F= -.62754120E+03 E0= -.62754120E+03  d E =0.168075E-08  mag=    20.0000
       N       E                     dE             d eps       ncg     rms          rms(c)
DAV:   1    -0.627541895687E+03   -0.69435E-03   -0.93548E-02 21504   0.595E-01    0.766E-02
DAV:   2    -0.627542132550E+03   -0.23686E-03   -0.27351E-03 28248   0.125E-01    0.811E-02
DAV:   3    -0.627542129604E+03    0.29454E-05   -0.17282E-04 13764   0.339E-02
  45 F= -.62754213E+03 E0= -.62754213E+03  d E =-.925829E-03  mag=    20.0000
       N       E                     dE             d eps       ncg     rms          rms(c)
DAV:   1    -0.627543244250E+03   -0.11117E-02   -0.17891E-01 21504   0.836E-01    0.155E-01
DAV:   2    -0.627543383133E+03   -0.13888E-03   -0.53370E-03 27108   0.162E-01    0.833E-02
DAV:   3    -0.627543350712E+03    0.32421E-04   -0.41002E-04 21984   0.587E-02
  46 F= -.62754335E+03 E0= -.62754335E+03  d E =-.122111E-02  mag=    20.0000
       N       E                     dE             d eps       ncg     rms          rms(c)
DAV:   1    -0.627544190831E+03   -0.80770E-03   -0.12823E-01 21504   0.697E-01    0.100E-01
DAV:   2    -0.627544469506E+03   -0.27867E-03   -0.36478E-03 26532   0.132E-01    0.669E-02
DAV:   3    -0.627544452277E+03    0.17229E-04   -0.18094E-04 15288   0.378E-02
  47 F= -.62754445E+03 E0= -.62754445E+03  d E =-.110156E-02  mag=    20.0000
       N       E                     dE             d eps       ncg     rms          rms(c)
DAV:   1    -0.627544615691E+03   -0.14618E-03   -0.13406E+00 21504   0.225E+00    0.249E-01
DAV:   2    -0.627547907681E+03   -0.32920E-02   -0.33642E-02 25296   0.378E-01    0.166E-01
DAV:   3    -0.627547928558E+03   -0.20878E-04   -0.13466E-03 29256   0.851E-02    0.113E-01
DAV:   4    -0.627547861410E+03    0.67149E-04   -0.80108E-05 13872   0.258E-02
  48 F= -.62754786E+03 E0= -.62754786E+03  d E =-.340913E-02  mag=    20.0000
       N       E                     dE             d eps       ncg     rms          rms(c)
DAV:   1    -0.627546311423E+03    0.16171E-02   -0.18204E-01 21504   0.839E-01    0.126E-01
DAV:   2    -0.627546708444E+03   -0.39702E-03   -0.61039E-03 27168   0.170E-01    0.989E-02
DAV:   3    -0.627546678716E+03    0.29729E-04   -0.30229E-04 19248   0.498E-02
  49 F= -.62754668E+03 E0= -.62754668E+03  d E =0.118269E-02  mag=    20.0000
       N       E                     dE             d eps       ncg     rms          rms(c)
DAV:   1    -0.627547227572E+03   -0.51913E-03   -0.52756E-01 21504   0.142E+00    0.182E-01
DAV:   2    -0.627548604846E+03   -0.13773E-02   -0.15286E-02 27312   0.275E-01    0.154E-01
DAV:   3    -0.627548639442E+03   -0.34596E-04   -0.11283E-03 27816   0.777E-02    0.906E-02
DAV:   4    -0.627548592095E+03    0.47347E-04   -0.11864E-04 13728   0.322E-02
  50 F= -.62754859E+03 E0= -.62754859E+03  d E =-.191338E-02  mag=    20.0000
       N       E                     dE             d eps       ncg     rms          rms(c)
DAV:   1    -0.627549318710E+03   -0.67927E-03   -0.63620E-02 21576   0.490E-01    0.722E-02
DAV:   2    -0.627549445410E+03   -0.12670E-03   -0.20024E-03 29760   0.109E-01    0.806E-02
DAV:   3    -0.627549424281E+03    0.21129E-04   -0.93144E-05 12780   0.322E-02
  51 F= -.62754942E+03 E0= -.62754942E+03  d E =-.832187E-03  mag=    20.0000
       N       E                     dE             d eps       ncg     rms          rms(c)
DAV:   1    -0.627550125145E+03   -0.67973E-03   -0.68871E-01 21504   0.161E+00    0.194E-01
DAV:   2    -0.627551817098E+03   -0.16920E-02   -0.17684E-02 25860   0.280E-01    0.133E-01
DAV:   3    -0.627551817884E+03   -0.78561E-06   -0.71393E-04 26148   0.674E-02
  52 F= -.62755182E+03 E0= -.62755182E+03  d E =-.239360E-02  mag=    20.0000
       N       E                     dE             d eps       ncg     rms          rms(c)
DAV:   1    -0.627551673368E+03    0.14373E-03   -0.57900E-03 22608   0.159E-01    0.804E-02
DAV:   2    -0.627551607580E+03    0.65788E-04   -0.44752E-04 21732   0.588E-02
  53 F= -.62755161E+03 E0= -.62755161E+03  d E =0.210304E-03  mag=    20.0000
       N       E                     dE             d eps       ncg     rms          rms(c)
DAV:   1    -0.627552328973E+03   -0.65560E-03   -0.51659E-01 21504   0.140E+00    0.183E-01
DAV:   2    -0.627553543152E+03   -0.12142E-02   -0.14767E-02 26892   0.266E-01    0.139E-01
DAV:   3    -0.627553531651E+03    0.11501E-04   -0.10120E-03 28356   0.727E-02    0.787E-02
DAV:   4    -0.627553474084E+03    0.57567E-04   -0.17211E-04 14712   0.380E-02
  54 F= -.62755347E+03 E0= -.62755347E+03  d E =-.186650E-02  mag=    20.0000
       N       E                     dE             d eps       ncg     rms          rms(c)
DAV:   1    -0.627554337180E+03   -0.80553E-03   -0.15952E-01 21504   0.778E-01    0.112E-01
DAV:   2    -0.627554716499E+03   -0.37932E-03   -0.50808E-03 28692   0.168E-01    0.129E-01
DAV:   3    -0.627554666873E+03    0.49626E-04   -0.25218E-04 17544   0.471E-02
  55 F= -.62755467E+03 E0= -.62755467E+03  d E =-.119279E-02  mag=    20.0000
       N       E                     dE             d eps       ncg     rms          rms(c)
DAV:   1    -0.627555440498E+03   -0.72400E-03   -0.25448E-01 21504   0.981E-01    0.125E-01
DAV:   2    -0.627556053928E+03   -0.61343E-03   -0.64695E-03 25656   0.167E-01    0.732E-02
DAV:   3    -0.627556037698E+03    0.16230E-04   -0.20053E-04 16584   0.346E-02
  56 F= -.62755604E+03 E0= -.62755604E+03  d E =-.137083E-02  mag=    20.0000
       N       E                     dE             d eps       ncg     rms          rms(c)
DAV:   1    -0.627556801834E+03   -0.74791E-03   -0.18863E-01 21504   0.844E-01    0.922E-02
DAV:   2    -0.627557234514E+03   -0.43268E-03   -0.48464E-03 26364   0.147E-01    0.722E-02
DAV:   3    -0.627557222366E+03    0.12148E-04   -0.20592E-04 15048   0.338E-02
  57 F= -.62755722E+03 E0= -.62755722E+03  d E =-.118467E-02  mag=    20.0000
       N       E                     dE             d eps       ncg     rms          rms(c)
DAV:   1    -0.627557594057E+03   -0.35954E-03   -0.28195E-02 21828   0.326E-01    0.490E-02
DAV:   2    -0.627557647736E+03   -0.53680E-04   -0.69269E-04 23472   0.578E-02
  58 F= -.62755765E+03 E0= -.62755765E+03  d E =-.425370E-03  mag=    20.0000
       N       E                     dE             d eps       ncg     rms          rms(c)
DAV:   1    -0.627558005602E+03   -0.41154E-03   -0.54270E-01 21504   0.143E+00    0.206E-01
DAV:   2    -0.627559485951E+03   -0.14803E-02   -0.14102E-02 26904   0.257E-01    0.146E-01
DAV:   3    -0.627559525232E+03   -0.39281E-04   -0.79049E-04 25596   0.645E-02
  59 F= -.62755953E+03 E0= -.62755953E+03  d E =-.187750E-02  mag=    20.0000
       N       E                     dE             d eps       ncg     rms          rms(c)
DAV:   1    -0.627559802933E+03   -0.31698E-03   -0.27390E-02 21576   0.324E-01    0.891E-02
DAV:   2    -0.627559831160E+03   -0.28227E-04   -0.18947E-03 30204   0.105E-01    0.958E-02
DAV:   3    -0.627559788186E+03    0.42973E-04   -0.19769E-04 15876   0.385E-02
  60 F= -.62755979E+03 E0= -.62755979E+03  d E =-.262954E-03  mag=    20.0000
       N       E                     dE             d eps       ncg     rms          rms(c)
DAV:   1    -0.627560241360E+03   -0.41020E-03   -0.50271E-02 21600   0.440E-01    0.581E-02
DAV:   2    -0.627560371109E+03   -0.12975E-03   -0.16144E-03 28632   0.920E-02    0.607E-02
DAV:   3    -0.627560353729E+03    0.17379E-04   -0.97445E-05 13632   0.285E-02
  61 F= -.62756035E+03 E0= -.62756035E+03  d E =-.565543E-03  mag=    20.0000
       N       E                     dE             d eps       ncg     rms          rms(c)
DAV:   1    -0.627561056888E+03   -0.68578E-03   -0.28965E-01 21504   0.105E+00    0.111E-01
DAV:   2    -0.627561768363E+03   -0.71147E-03   -0.73143E-03 24756   0.173E-01    0.639E-02
DAV:   3    -0.627561763866E+03    0.44966E-05   -0.22078E-04 17460   0.350E-02
  62 F= -.62756176E+03 E0= -.62756176E+03  d E =-.141014E-02  mag=    20.0000
       N       E                     dE             d eps       ncg     rms          rms(c)
DAV:   1    -0.627562425521E+03   -0.65716E-03   -0.50140E-01 21504   0.138E+00    0.142E-01
DAV:   2    -0.627563629361E+03   -0.12038E-02   -0.12564E-02 25488   0.228E-01    0.991E-02
DAV:   3    -0.627563610181E+03    0.19180E-04   -0.44356E-04 21888   0.448E-02
  63 F= -.62756361E+03 E0= -.62756361E+03  d E =-.184632E-02  mag=    20.0000
       N       E                     dE             d eps       ncg     rms          rms(c)
DAV:   1    -0.627563241470E+03    0.38789E-03   -0.15877E-02 21672   0.252E-01    0.501E-02
DAV:   2    -0.627563283213E+03   -0.41743E-04   -0.79675E-04 24600   0.714E-02
  64 F= -.62756328E+03 E0= -.62756328E+03  d E =0.326969E-03  mag=    20.0000
       N       E                     dE             d eps       ncg     rms          rms(c)
DAV:   1    -0.627563859219E+03   -0.61775E-03   -0.43226E-01 21504   0.128E+00    0.149E-01
DAV:   2    -0.627564957068E+03   -0.10978E-02   -0.11306E-02 24948   0.222E-01    0.976E-02
DAV:   3    -0.627564969541E+03   -0.12473E-04   -0.49316E-04 23016   0.569E-02
  65 F= -.62756497E+03 E0= -.62756497E+03  d E =-.168633E-02  mag=    20.0000
       N       E                     dE             d eps       ncg     rms          rms(c)
DAV:   1    -0.627565484984E+03   -0.52792E-03   -0.72682E-02 21552   0.524E-01    0.698E-02
DAV:   2    -0.627565632508E+03   -0.14752E-03   -0.18006E-03 25536   0.898E-02    0.471E-02
DAV:   3    -0.627565619957E+03    0.12551E-04   -0.53468E-05 12408   0.183E-02
  66 F= -.62756562E+03 E0= -.62756562E+03  d E =-.650416E-03  mag=    20.0000
       N       E                     dE             d eps       ncg     rms          rms(c)
DAV:   1    -0.627565992083E+03   -0.35957E-03   -0.33949E-02 21672   0.358E-01    0.444E-02
DAV:   2    -0.627566074080E+03   -0.81997E-04   -0.84531E-04 22656   0.596E-02
  67 F= -.62756607E+03 E0= -.62756607E+03  d E =-.454123E-03  mag=    20.0000
       N       E                     dE             d eps       ncg     rms          rms(c)
DAV:   1    -0.627566185515E+03   -0.19343E-03   -0.55088E-01 21504   0.144E+00    0.218E-01
DAV:   2    -0.627567824251E+03   -0.16387E-02   -0.14120E-02 25860   0.249E-01    0.142E-01
DAV:   3    -0.627567877737E+03   -0.53486E-04   -0.54859E-04 23352   0.545E-02
  68 F= -.62756788E+03 E0= -.62756788E+03  d E =-.180366E-02  mag=    20.0000
       N       E                     dE             d eps       ncg     rms          rms(c)
DAV:   1    -0.627566352991E+03    0.14713E-02   -0.16060E-01 21504   0.780E-01    0.128E-01
DAV:   2    -0.627566867517E+03   -0.51453E-03   -0.45942E-03 24924   0.142E-01    0.739E-02
DAV:   3    -0.627566892948E+03   -0.25431E-04   -0.14112E-04 14472   0.354E-02
  69 F= -.62756689E+03 E0= -.62756689E+03  d E =0.984789E-03  mag=    20.0000
       N       E                     dE             d eps       ncg     rms          rms(c)
DAV:   1    -0.627567353602E+03   -0.48609E-03   -0.28341E-01 21504   0.104E+00    0.123E-01
DAV:   2    -0.627568080162E+03   -0.72656E-03   -0.84648E-03 26940   0.200E-01    0.114E-01
DAV:   3    -0.627568076592E+03    0.35698E-05   -0.49340E-04 22644   0.507E-02
  70 F= -.62756808E+03 E0= -.62756808E+03  d E =-.118364E-02  mag=    20.0000
       N       E                     dE             d eps       ncg     rms          rms(c)
DAV:   1    -0.627568644692E+03   -0.56453E-03   -0.67995E-02 21504   0.511E-01    0.827E-02
DAV:   2    -0.627568788468E+03   -0.14378E-03   -0.23280E-03 29460   0.110E-01    0.765E-02
DAV:   3    -0.627568762211E+03    0.26257E-04   -0.11127E-04 13128   0.338E-02
  71 F= -.62756876E+03 E0= -.62756876E+03  d E =-.685619E-03  mag=    20.0000
       N       E                     dE             d eps       ncg     rms          rms(c)
DAV:   1    -0.627569364222E+03   -0.57575E-03   -0.37512E-01 21504   0.119E+00    0.134E-01
DAV:   2    -0.627570244075E+03   -0.87985E-03   -0.94214E-03 24780   0.198E-01    0.788E-02
DAV:   3    -0.627570232258E+03    0.11817E-04   -0.29586E-04 19248   0.409E-02
  72 F= -.62757023E+03 E0= -.62757023E+03  d E =-.147005E-02  mag=    20.0000
       N       E                     dE             d eps       ncg     rms          rms(c)
DAV:   1    -0.627570453236E+03   -0.20916E-03   -0.98877E-03 21768   0.192E-01    0.399E-02
DAV:   2    -0.627570453546E+03   -0.31003E-06   -0.20812E-04 14112   0.333E-02
  73 F= -.62757045E+03 E0= -.62757045E+03  d E =-.221288E-03  mag=    20.0000
       N       E                     dE             d eps       ncg     rms          rms(c)
DAV:   1    -0.627570906865E+03   -0.45363E-03   -0.46485E-01 21504   0.133E+00    0.183E-01
DAV:   2    -0.627572060383E+03   -0.11535E-02   -0.12494E-02 25788   0.233E-01    0.119E-01
DAV:   3    -0.627572067831E+03   -0.74481E-05   -0.57109E-04 24756   0.576E-02
  74 F= -.62757207E+03 E0= -.62757207E+03  d E =-.161429E-02  mag=    20.0000
       N       E                     dE             d eps       ncg     rms          rms(c)
DAV:   1    -0.627571818439E+03    0.24194E-03   -0.11297E-02 21840   0.213E-01    0.587E-02
DAV:   2    -0.627571830545E+03   -0.12106E-04   -0.54331E-04 22260   0.566E-02
  75 F= -.62757183E+03 E0= -.62757183E+03  d E =0.237287E-03  mag=    20.0000
       N       E                     dE             d eps       ncg     rms          rms(c)
DAV:   1    -0.627572417406E+03   -0.59897E-03   -0.31721E-01 21504   0.110E+00    0.136E-01
DAV:   2    -0.627573093639E+03   -0.67623E-03   -0.84367E-03 25692   0.194E-01    0.943E-02
DAV:   3    -0.627573080939E+03    0.12700E-04   -0.33164E-04 19140   0.502E-02
  76 F= -.62757308E+03 E0= -.62757308E+03  d E =-.125039E-02  mag=    20.0000
       N       E                     dE             d eps       ncg     rms          rms(c)
DAV:   1    -0.627573309329E+03   -0.21569E-03   -0.10520E-02 21912   0.200E-01    0.416E-02
DAV:   2    -0.627573322550E+03   -0.13221E-04   -0.29230E-04 15684   0.401E-02
  77 F= -.62757332E+03 E0= -.62757332E+03  d E =-.241611E-03  mag=    20.0000
       N       E                     dE             d eps       ncg     rms          rms(c)
DAV:   1    -0.627573901674E+03   -0.59234E-03   -0.29706E-01 21504   0.107E+00    0.190E-01
DAV:   2    -0.627574556707E+03   -0.65503E-03   -0.85547E-03 26844   0.200E-01    0.126E-01
DAV:   3    -0.627574550621E+03    0.60856E-05   -0.46876E-04 22968   0.596E-02
  78 F= -.62757455E+03 E0= -.62757455E+03  d E =-.122807E-02  mag=    20.0000
       N       E                     dE             d eps       ncg     rms          rms(c)
DAV:   1    -0.627574932544E+03   -0.37584E-03   -0.46927E-02 21744   0.422E-01    0.652E-02
DAV:   2    -0.627575046709E+03   -0.11417E-03   -0.12342E-03 25584   0.794E-02    0.581E-02
DAV:   3    -0.627575042472E+03    0.42377E-05   -0.42028E-05 11772   0.219E-02
  79 F= -.62757504E+03 E0= -.62757504E+03  d E =-.491851E-03  mag=    20.0000
       N       E                     dE             d eps       ncg     rms          rms(c)
DAV:   1    -0.627575414543E+03   -0.36783E-03   -0.67114E-02 21504   0.507E-01    0.849E-02
DAV:   2    -0.627575557814E+03   -0.14327E-03   -0.17779E-03 26940   0.970E-02    0.733E-02
DAV:   3    -0.627575552677E+03    0.51361E-05   -0.71317E-05 13116   0.288E-02
  80 F= -.62757555E+03 E0= -.62757555E+03  d E =-.510206E-03  mag=    20.0000
       N       E                     dE             d eps       ncg     rms          rms(c)
DAV:   1    -0.627576114209E+03   -0.55640E-03   -0.25564E-02 22848   0.338E-01    0.161E-01
DAV:   2    -0.627575811224E+03    0.30299E-03   -0.21781E-03 31656   0.115E-01    0.114E-01
DAV:   3    -0.627575751405E+03    0.59819E-04   -0.33434E-04 20664   0.555E-02
  81 F= -.62757575E+03 E0= -.62757575E+03  d E =-.198728E-03  mag=    20.0000
       N       E                     dE             d eps       ncg     rms          rms(c)
DAV:   1    -0.627576251878E+03   -0.44065E-03   -0.53895E-02 21624   0.460E-01    0.996E-02
DAV:   2    -0.627576345711E+03   -0.93833E-04   -0.18883E-03 29712   0.102E-01    0.822E-02
DAV:   3    -0.627576338259E+03    0.74519E-05   -0.11493E-04 13080   0.359E-02
  82 F= -.62757634E+03 E0= -.62757634E+03  d E =-.586854E-03  mag=    20.0000
       N       E                     dE             d eps       ncg     rms          rms(c)
DAV:   1    -0.627576911403E+03   -0.56569E-03   -0.26405E-01 21504   0.101E+00    0.170E-01
DAV:   2    -0.627577396403E+03   -0.48500E-03   -0.76267E-03 26328   0.188E-01    0.112E-01
DAV:   3    -0.627577370611E+03    0.25792E-04   -0.38243E-04 21864   0.556E-02
  83 F= -.62757737E+03 E0= -.62757737E+03  d E =-.103235E-02  mag=    20.0000
       N       E                     dE             d eps       ncg     rms          rms(c)
DAV:   1    -0.627577863434E+03   -0.46703E-03   -0.52333E-02 21600   0.450E-01    0.857E-02
DAV:   2    -0.627577933578E+03   -0.70144E-04   -0.15563E-03 26364   0.886E-02    0.560E-02
DAV:   3    -0.627577925473E+03    0.81054E-05   -0.87300E-05 12888   0.322E-02
  84 F= -.62757793E+03 E0= -.62757793E+03  d E =-.554861E-03  mag=    20.0000
       N       E                     dE             d eps       ncg     rms          rms(c)
DAV:   1    -0.627578282758E+03   -0.34918E-03   -0.10332E-01 21504   0.629E-01    0.105E-01
DAV:   2    -0.627578509489E+03   -0.22673E-03   -0.28303E-03 26796   0.120E-01    0.891E-02
DAV:   3    -0.627578502334E+03    0.71550E-05   -0.12032E-04 14796   0.357E-02
  85 F= -.62757850E+03 E0= -.62757850E+03  d E =-.576862E-03  mag=    20.0000
       N       E                     dE             d eps       ncg     rms          rms(c)
DAV:   1    -0.627579002081E+03   -0.49259E-03   -0.26376E-02 22764   0.339E-01    0.143E-01
DAV:   2    -0.627578761028E+03    0.24105E-03   -0.19527E-03 30972   0.102E-01    0.914E-02
DAV:   3    -0.627578708992E+03    0.52036E-04   -0.31550E-04 20328   0.546E-02
  86 F= -.62757871E+03 E0= -.62757871E+03  d E =-.206658E-03  mag=    20.0000
       N       E                     dE             d eps       ncg     rms          rms(c)
DAV:   1    -0.627579360482E+03   -0.59945E-03   -0.64014E-02 21600   0.504E-01    0.119E-01
DAV:   2    -0.627579372048E+03   -0.11565E-04   -0.24497E-03 30072   0.117E-01    0.900E-02
DAV:   3    -0.627579347983E+03    0.24065E-04   -0.20020E-04 17328   0.464E-02
  87 F= -.62757935E+03 E0= -.62757935E+03  d E =-.638990E-03  mag=    20.0000
       N       E                     dE             d eps       ncg     rms          rms(c)
DAV:   1    -0.627579970463E+03   -0.59842E-03   -0.25406E-01 21504   0.993E-01    0.182E-01
DAV:   2    -0.627580345523E+03   -0.37506E-03   -0.76428E-03 26664   0.189E-01    0.118E-01
DAV:   3    -0.627580307642E+03    0.37881E-04   -0.42111E-04 22560   0.598E-02
  88 F= -.62758031E+03 E0= -.62758031E+03  d E =-.959660E-03  mag=    20.0000
       N       E                     dE             d eps       ncg     rms          rms(c)
DAV:   1    -0.627580735363E+03   -0.38984E-03   -0.33438E-02 21720   0.360E-01    0.764E-02
DAV:   2    -0.627580758600E+03   -0.23237E-04   -0.10282E-03 24972   0.718E-02    0.418E-02
DAV:   3    -0.627580751536E+03    0.70646E-05   -0.78773E-05 12816   0.298E-02
  89 F= -.62758075E+03 E0= -.62758075E+03  d E =-.443893E-03  mag=    20.0000
       N       E                     dE             d eps       ncg     rms          rms(c)
DAV:   1    -0.627581026178E+03   -0.26758E-03   -0.78936E-02 21504   0.549E-01    0.976E-02
DAV:   2    -0.627581219543E+03   -0.19337E-03   -0.23095E-03 27060   0.110E-01    0.898E-02
DAV:   3    -0.627581212693E+03    0.68499E-05   -0.11508E-04 14844   0.342E-02
  90 F= -.62758121E+03 E0= -.62758121E+03  d E =-.461158E-03  mag=    20.0000
       N       E                     dE             d eps       ncg     rms          rms(c)
DAV:   1    -0.627581953328E+03   -0.73378E-03   -0.48634E-02 22584   0.461E-01    0.190E-01
DAV:   2    -0.627581527400E+03    0.42593E-03   -0.32458E-03 30756   0.131E-01    0.114E-01
DAV:   3    -0.627581454143E+03    0.73257E-04   -0.57325E-04 23112   0.721E-02
  91 F= -.62758145E+03 E0= -.62758145E+03  d E =-.241450E-03  mag=    20.0000
       N       E                     dE             d eps       ncg     rms          rms(c)
DAV:   1    -0.627582022451E+03   -0.49505E-03   -0.57580E-02 21600   0.472E-01    0.100E-01
DAV:   2    -0.627582088501E+03   -0.66050E-04   -0.20635E-03 28236   0.102E-01    0.716E-02
DAV:   3    -0.627582070849E+03    0.17652E-04   -0.11970E-04 13956   0.371E-02
  92 F= -.62758207E+03 E0= -.62758207E+03  d E =-.616706E-03  mag=    20.0000
       N       E                     dE             d eps       ncg     rms          rms(c)
DAV:   1    -0.627582679508E+03   -0.59101E-03   -0.19335E-01 21504   0.873E-01    0.187E-01
DAV:   2    -0.627582845738E+03   -0.16623E-03   -0.63012E-03 27492   0.177E-01    0.126E-01
DAV:   3    -0.627582804781E+03    0.40957E-04   -0.43126E-04 22368   0.620E-02
  93 F= -.62758280E+03 E0= -.62758280E+03  d E =-.733932E-03  mag=    20.0000
       N       E                     dE             d eps       ncg     rms          rms(c)
DAV:   1    -0.627583334412E+03   -0.48867E-03   -0.54533E-02 21552   0.460E-01    0.106E-01
DAV:   2    -0.627583387494E+03   -0.53082E-04   -0.19351E-03 27132   0.101E-01    0.733E-02
DAV:   3    -0.627583373172E+03    0.14322E-04   -0.12251E-04 13872   0.391E-02
  94 F= -.62758337E+03 E0= -.62758337E+03  d E =-.568391E-03  mag=    20.0000
       N       E                     dE             d eps       ncg     rms          rms(c)
DAV:   1    -0.627583673933E+03   -0.28644E-03   -0.39991E-02 21672   0.390E-01    0.551E-02
DAV:   2    -0.627583773858E+03   -0.99925E-04   -0.10270E-03 25116   0.681E-02    0.412E-02
DAV:   3    -0.627583772761E+03    0.10965E-05   -0.39208E-05 12384   0.170E-02
  95 F= -.62758377E+03 E0= -.62758377E+03  d E =-.399590E-03  mag=    20.0000
       N       E                     dE             d eps       ncg     rms          rms(c)
DAV:   1    -0.627583862432E+03   -0.88575E-04   -0.47713E-01 21504   0.135E+00    0.157E-01
DAV:   2    -0.627585067149E+03   -0.12047E-02   -0.12687E-02 25848   0.234E-01    0.114E-01
DAV:   3    -0.627585060444E+03    0.67054E-05   -0.48004E-04 22656   0.492E-02
  96 F= -.62758506E+03 E0= -.62758506E+03  d E =-.128768E-02  mag=    20.0000
       N       E                     dE             d eps       ncg     rms          rms(c)
DAV:   1    -0.627585591442E+03   -0.52429E-03   -0.17972E-01 21552   0.828E-01    0.114E-01
DAV:   2    -0.627585998876E+03   -0.40743E-03   -0.53471E-03 28224   0.163E-01    0.110E-01
DAV:   3    -0.627585950309E+03    0.48567E-04   -0.29112E-04 18324   0.479E-02
  97 F= -.62758595E+03 E0= -.62758595E+03  d E =-.889865E-03  mag=    20.0000
       N       E                     dE             d eps       ncg     rms          rms(c)
DAV:   1    -0.627586523478E+03   -0.52460E-03   -0.69043E-02 22056   0.528E-01    0.189E-01
DAV:   2    -0.627586174047E+03    0.34943E-03   -0.34245E-03 28536   0.144E-01    0.125E-01
DAV:   3    -0.627586117361E+03    0.56686E-04   -0.50418E-04 23796   0.704E-02
  98 F= -.62758612E+03 E0= -.62758612E+03  d E =-.167052E-03  mag=    20.0000
       N       E                     dE             d eps       ncg     rms          rms(c)
DAV:   1    -0.627586123058E+03    0.50990E-04   -0.31568E-02 21552   0.345E-01    0.994E-02
DAV:   2    -0.627586174581E+03   -0.51523E-04   -0.16542E-03 28512   0.956E-02    0.864E-02
DAV:   3    -0.627586152990E+03    0.21591E-04   -0.12018E-04 13272   0.384E-02
  99 F= -.62758615E+03 E0= -.62758615E+03  d E =-.356291E-04  mag=    20.0000
       N       E                     dE             d eps       ncg     rms          rms(c)
DAV:   1    -0.627586500128E+03   -0.32555E-03   -0.21210E-01 21552   0.901E-01    0.126E-01
DAV:   2    -0.627587002102E+03   -0.50197E-03   -0.57977E-03 26196   0.159E-01    0.773E-02
DAV:   3    -0.627586999280E+03    0.28220E-05   -0.16147E-04 16752   0.397E-02
 100 F= -.62758700E+03 E0= -.62758700E+03  d E =-.846290E-03  mag=    20.0000
       N       E                     dE             d eps       ncg     rms          rms(c)
DAV:   1    -0.627587184770E+03   -0.18267E-03   -0.87689E-03 21840   0.183E-01    0.425E-02
DAV:   2    -0.627587192909E+03   -0.81388E-05   -0.19821E-04 13836   0.356E-02
 101 F= -.62758719E+03 E0= -.62758719E+03  d E =-.193628E-03  mag=    20.0000
       N       E                     dE             d eps       ncg     rms          rms(c)
DAV:   1    -0.627588098397E+03   -0.91363E-03   -0.27469E-01 21504   0.104E+00    0.224E-01
DAV:   2    -0.627588250305E+03   -0.15191E-03   -0.91729E-03 27996   0.213E-01    0.145E-01
DAV:   3    -0.627588194814E+03    0.55491E-04   -0.88032E-04 27576   0.843E-02
 102 F= -.62758819E+03 E0= -.62758819E+03  d E =-.100190E-02  mag=    20.0000
       N       E                     dE             d eps       ncg     rms          rms(c)
DAV:   1    -0.627588480384E+03   -0.23008E-03   -0.27587E-01 21552   0.102E+00    0.139E-01
DAV:   2    -0.627589176720E+03   -0.69634E-03   -0.72542E-03 26664   0.179E-01    0.993E-02
DAV:   3    -0.627589170164E+03    0.65559E-05   -0.21617E-04 16464   0.412E-02
 103 F= -.62758917E+03 E0= -.62758917E+03  d E =-.975350E-03  mag=    20.0000
       N       E                     dE             d eps       ncg     rms          rms(c)
DAV:   1    -0.627589223982E+03   -0.47262E-04   -0.12574E-02 22284   0.227E-01    0.109E-01
DAV:   2    -0.627589139566E+03    0.84415E-04   -0.92118E-04 25884   0.743E-02
 104 F= -.62758914E+03 E0= -.62758914E+03  d E =0.305975E-04  mag=    20.0000
       N       E                     dE             d eps       ncg     rms          rms(c)
DAV:   1    -0.627589289188E+03   -0.65206E-04   -0.18774E-02 22548   0.275E-01    0.135E-01
DAV:   2    -0.627589220110E+03    0.69077E-04   -0.12033E-03 27300   0.823E-02    0.848E-02
DAV:   3    -0.627589200731E+03    0.19379E-04   -0.17412E-04 17340   0.447E-02
 105 F= -.62758920E+03 E0= -.62758920E+03  d E =-.611648E-04  mag=    20.0000
       N       E                     dE             d eps       ncg     rms          rms(c)
DAV:   1    -0.627589352935E+03   -0.13283E-03   -0.22013E-01 21504   0.914E-01    0.152E-01
DAV:   2    -0.627590038306E+03   -0.68537E-03   -0.63592E-03 26664   0.177E-01    0.132E-01
DAV:   3    -0.627590034553E+03    0.37524E-05   -0.30872E-04 18924   0.494E-02
 106 F= -.62759003E+03 E0= -.62759003E+03  d E =-.833822E-03  mag=    20.0000
       N       E                     dE             d eps       ncg     rms          rms(c)
DAV:   1    -0.627590254113E+03   -0.21581E-03   -0.86687E-03 21912   0.185E-01    0.568E-02
DAV:   2    -0.627590255526E+03   -0.14125E-05   -0.48499E-04 21588   0.512E-02
 107 F= -.62759026E+03 E0= -.62759026E+03  d E =-.220972E-03  mag=    20.0000
       N       E                     dE             d eps       ncg     rms          rms(c)
DAV:   1    -0.627590621090E+03   -0.36698E-03   -0.22815E-01 21552   0.932E-01    0.112E-01
DAV:   2    -0.627591183636E+03   -0.56255E-03   -0.61620E-03 27084   0.166E-01    0.784E-02
DAV:   3    -0.627591179612E+03    0.40237E-05   -0.19370E-04 15420   0.376E-02
 108 F= -.62759118E+03 E0= -.62759118E+03  d E =-.924086E-03  mag=    20.0000
       N       E                     dE             d eps       ncg     rms          rms(c)
DAV:   1    -0.627591510692E+03   -0.32706E-03   -0.70452E-02 21576   0.525E-01    0.107E-01
DAV:   2    -0.627591627957E+03   -0.11726E-03   -0.29749E-03 29520   0.133E-01    0.129E-01
DAV:   3    -0.627591578600E+03    0.49357E-04   -0.19186E-04 15648   0.403E-02
 109 F= -.62759158E+03 E0= -.62759158E+03  d E =-.398988E-03  mag=    20.0000
       N       E                     dE             d eps       ncg     rms          rms(c)
DAV:   1    -0.627591999368E+03   -0.37141E-03   -0.90430E-02 21552   0.594E-01    0.998E-02
DAV:   2    -0.627592209123E+03   -0.20975E-03   -0.31628E-03 29424   0.130E-01    0.995E-02
DAV:   3    -0.627592168664E+03    0.40459E-04   -0.21258E-04 16524   0.427E-02
 110 F= -.62759217E+03 E0= -.62759217E+03  d E =-.590064E-03  mag=    20.0000
       N       E                     dE             d eps       ncg     rms          rms(c)
DAV:   1    -0.627592525225E+03   -0.31610E-03   -0.16865E-01 21552   0.800E-01    0.952E-02
DAV:   2    -0.627592940389E+03   -0.41516E-03   -0.42420E-03 25716   0.135E-01    0.602E-02
DAV:   3    -0.627592939061E+03    0.13282E-05   -0.13994E-04 14856   0.305E-02
 111 F= -.62759294E+03 E0= -.62759294E+03  d E =-.770397E-03  mag=    20.0000
       N       E                     dE             d eps       ncg     rms          rms(c)
DAV:   1    -0.627593274233E+03   -0.33384E-03   -0.71608E-02 21600   0.521E-01    0.603E-02
DAV:   2    -0.627593438801E+03   -0.16457E-03   -0.18220E-03 26268   0.871E-02    0.456E-02
DAV:   3    -0.627593431475E+03    0.73262E-05   -0.55987E-05 12012   0.201E-02
 112 F= -.62759343E+03 E0= -.62759343E+03  d E =-.492413E-03  mag=    20.0000
       N       E                     dE             d eps       ncg     rms          rms(c)
DAV:   1    -0.627591213964E+03    0.22248E-02   -0.19202E+00 21504   0.270E+00    0.283E-01
DAV:   2    -0.627596036479E+03   -0.48225E-02   -0.49355E-02 24480   0.449E-01    0.172E-01
DAV:   3    -0.627596061152E+03   -0.24673E-04   -0.18925E-03 30444   0.903E-02    0.102E-01
DAV:   4    -0.627595957260E+03    0.10389E-03   -0.17125E-04 15264   0.360E-02    0.723E-02
DAV:   5    -0.627595919263E+03    0.37997E-04   -0.38346E-04 18372   0.421E-02
 113 F= -.62759592E+03 E0= -.62759592E+03  d E =-.248779E-02  mag=    20.0000
       N       E                     dE             d eps       ncg     rms          rms(c)
DAV:   1    -0.627593068205E+03    0.28891E-02   -0.21659E+00 21504   0.286E+00    0.328E-01
DAV:   2    -0.627598596068E+03   -0.55279E-02   -0.55652E-02 24360   0.477E-01    0.175E-01
DAV:   3    -0.627598711371E+03   -0.11530E-03   -0.22553E-03 30792   0.955E-02    0.101E-01
DAV:   4    -0.627598603671E+03    0.10770E-03   -0.24163E-04 17124   0.401E-02    0.668E-02
DAV:   5    -0.627598563503E+03    0.40168E-04   -0.31161E-04 16836   0.393E-02
 114 F= -.62759856E+03 E0= -.62759856E+03  d E =-.264424E-02  mag=    20.0000
       N       E                     dE             d eps       ncg     rms          rms(c)
DAV:   1    -0.627591287683E+03    0.73160E-02   -0.41325E+00 21504   0.395E+00    0.455E-01
DAV:   2    -0.627602009273E+03   -0.10722E-01   -0.10568E-01 24720   0.659E-01    0.236E-01
DAV:   3    -0.627602276496E+03   -0.26722E-03   -0.43475E-03 30732   0.126E-01    0.137E-01
DAV:   4    -0.627602066720E+03    0.20978E-03   -0.52628E-04 22440   0.535E-02    0.835E-02
DAV:   5    -0.627601971207E+03    0.95513E-04   -0.36241E-04 19788   0.455E-02
 115 F= -.62760197E+03 E0= -.62760197E+03  d E =-.340770E-02  mag=    20.0000
       N       E                     dE             d eps       ncg     rms          rms(c)
DAV:   1    -0.627589175022E+03    0.12892E-01   -0.37126E+00 21504   0.375E+00    0.406E-01
DAV:   2    -0.627598867284E+03   -0.96923E-02   -0.95304E-02 23928   0.622E-01    0.216E-01
DAV:   3    -0.627599049634E+03   -0.18235E-03   -0.35490E-03 31116   0.111E-01    0.123E-01
DAV:   4    -0.627598858887E+03    0.19075E-03   -0.29309E-04 18300   0.411E-02    0.767E-02
DAV:   5    -0.627598764169E+03    0.94718E-04   -0.38853E-04 20928   0.448E-02
 116 F= -.62759876E+03 E0= -.62759876E+03  d E =0.320704E-02  mag=    20.0000
       N       E                     dE             d eps       ncg     rms          rms(c)
DAV:   1    -0.627587503555E+03    0.11355E-01   -0.58509E+00 21504   0.472E+00    0.502E-01
DAV:   2    -0.627602883344E+03   -0.15380E-01   -0.15250E-01 23916   0.789E-01    0.279E-01
DAV:   3    -0.627603064688E+03   -0.18134E-03   -0.52299E-03 31476   0.140E-01    0.165E-01
DAV:   4    -0.627602780270E+03    0.28442E-03   -0.59475E-04 23220   0.581E-02    0.108E-01
DAV:   5    -0.627602620709E+03    0.15956E-03   -0.55112E-04 22704   0.566E-02    0.409E-02
DAV:   6    -0.627602630264E+03   -0.95550E-05   -0.14502E-04 13320   0.300E-02
 117 F= -.62760263E+03 E0= -.62760263E+03  d E =-.386609E-02  mag=    20.0000
       N       E                     dE             d eps       ncg     rms          rms(c)
DAV:   1    -0.627592826335E+03    0.97944E-02   -0.50661E+00 21504   0.438E+00    0.517E-01
DAV:   2    -0.627606385842E+03   -0.13560E-01   -0.13107E-01 24828   0.737E-01    0.281E-01
DAV:   3    -0.627606740203E+03   -0.35436E-03   -0.53099E-03 31188   0.149E-01    0.164E-01
DAV:   4    -0.627606513554E+03    0.22665E-03   -0.53124E-04 23004   0.546E-02    0.105E-01
DAV:   5    -0.627606368393E+03    0.14516E-03   -0.59624E-04 23244   0.554E-02    0.390E-02
DAV:   6    -0.627606371620E+03   -0.32265E-05   -0.12680E-04 13788   0.315E-02
 118 F= -.62760637E+03 E0= -.62760637E+03  d E =-.374136E-02  mag=    20.0000
       N       E                     dE             d eps       ncg     rms          rms(c)
DAV:   1    -0.627605403364E+03    0.96503E-03   -0.19865E-01 21504   0.873E-01    0.225E-01
DAV:   2    -0.627605700561E+03   -0.29720E-03   -0.64212E-03 28152   0.179E-01    0.142E-01
DAV:   3    -0.627605704007E+03   -0.34456E-05   -0.51587E-04 23172   0.648E-02
 119 F= -.62760570E+03 E0= -.62760570E+03  d E =0.667613E-03  mag=    20.0000
       N       E                     dE             d eps       ncg     rms          rms(c)
DAV:   1    -0.627605289643E+03    0.41092E-03   -0.54823E-02 21768   0.457E-01    0.812E-02
DAV:   2    -0.627605437253E+03   -0.14761E-03   -0.16619E-03 26556   0.896E-02    0.635E-02
DAV:   3    -0.627605427888E+03    0.93651E-05   -0.70906E-05 12072   0.258E-02
 120 F= -.62760543E+03 E0= -.62760543E+03  d E =0.276119E-03  mag=    20.0000
       N       E                     dE             d eps       ncg     rms          rms(c)
DAV:   1    -0.627605674617E+03   -0.23736E-03   -0.22403E-01 21504   0.934E-01    0.155E-01
DAV:   2    -0.627606036443E+03   -0.36183E-03   -0.67653E-03 26904   0.179E-01    0.925E-02
DAV:   3    -0.627606015769E+03    0.20674E-04   -0.34565E-04 20604   0.558E-02
 121 F= -.62760602E+03 E0= -.62760602E+03  d E =-.587881E-03  mag=    20.0000
       N       E                     dE             d eps       ncg     rms          rms(c)
DAV:   1    -0.627606403730E+03   -0.36729E-03   -0.85878E-02 21552   0.577E-01    0.965E-02
DAV:   2    -0.627606561784E+03   -0.15805E-03   -0.25727E-03 26808   0.113E-01    0.644E-02
DAV:   3    -0.627606552413E+03    0.93710E-05   -0.12864E-04 13344   0.376E-02
 122 F= -.62760655E+03 E0= -.62760655E+03  d E =-.536644E-03  mag=    20.0000
       N       E                     dE             d eps       ncg     rms          rms(c)
DAV:   1    -0.627606582328E+03   -0.20544E-04   -0.19981E-03 21012   0.879E-02    0.334E-02
DAV:   2    -0.627606583195E+03   -0.86756E-06   -0.71366E-05 13788   0.246E-02
 123 F= -.62760658E+03 E0= -.62760658E+03  d E =-.307821E-04  mag=    20.0000
       N       E                     dE             d eps       ncg     rms          rms(c)
DAV:   1    -0.627606820760E+03   -0.23843E-03   -0.13882E-01 21504   0.728E-01    0.842E-02
DAV:   2    -0.627607130289E+03   -0.30953E-03   -0.37694E-03 26868   0.126E-01    0.591E-02
DAV:   3    -0.627607117604E+03    0.12685E-04   -0.12550E-04 13620   0.330E-02
 124 F= -.62760712E+03 E0= -.62760712E+03  d E =-.534409E-03  mag=    20.0000
       N       E                     dE             d eps       ncg     rms          rms(c)
DAV:   1    -0.627606911131E+03    0.21916E-03   -0.20546E-02 21804   0.284E-01    0.513E-02
DAV:   2    -0.627606935710E+03   -0.24579E-04   -0.67428E-04 22020   0.561E-02
 125 F= -.62760694E+03 E0= -.62760694E+03  d E =0.181894E-03  mag=    20.0000
       N       E                     dE             d eps       ncg     rms          rms(c)
DAV:   1    -0.627607063439E+03   -0.15231E-03   -0.11708E-02 21936   0.224E-01    0.663E-02
DAV:   2    -0.627607030289E+03    0.33149E-04   -0.43419E-04 18312   0.543E-02
 126 F= -.62760703E+03 E0= -.62760703E+03  d E =-.945796E-04  mag=    20.0000
       N       E                     dE             d eps       ncg     rms          rms(c)
DAV:   1    -0.627607569254E+03   -0.50582E-03   -0.47538E-01 21540   0.137E+00    0.312E-01
DAV:   2    -0.627607640700E+03   -0.71446E-04   -0.17085E-02 29148   0.294E-01    0.231E-01
DAV:   3    -0.627607461628E+03    0.17907E-03   -0.16902E-03 29520   0.116E-01    0.100E-01
DAV:   4    -0.627607391920E+03    0.69709E-04   -0.22877E-04 16284   0.434E-02
 127 F= -.62760739E+03 E0= -.62760739E+03  d E =-.361630E-03  mag=    20.0000
       N       E                     dE             d eps       ncg     rms          rms(c)
DAV:   1    -0.627608376444E+03   -0.91482E-03   -0.16785E-01 21864   0.838E-01    0.274E-01
DAV:   2    -0.627607667487E+03    0.70896E-03   -0.87429E-03 30972   0.227E-01    0.193E-01
DAV:   3    -0.627607504076E+03    0.16341E-03   -0.13537E-03 29976   0.104E-01    0.733E-02
DAV:   4    -0.627607455761E+03    0.48314E-04   -0.12240E-04 14052   0.337E-02
 128 F= -.62760746E+03 E0= -.62760746E+03  d E =-.638417E-04  mag=    20.0000
       N       E                     dE             d eps       ncg     rms          rms(c)
DAV:   1    -0.627608072342E+03   -0.56827E-03   -0.11535E-01 21660   0.695E-01    0.228E-01
DAV:   2    -0.627607792931E+03    0.27941E-03   -0.66586E-03 30696   0.210E-01    0.212E-01
DAV:   3    -0.627607668168E+03    0.12476E-03   -0.10822E-03 29892   0.848E-02    0.112E-01
DAV:   4    -0.627607607900E+03    0.60268E-04   -0.26709E-04 18048   0.456E-02
 129 F= -.62760761E+03 E0= -.62760761E+03  d E =-.152138E-03  mag=    20.0000
       N       E                     dE             d eps       ncg     rms          rms(c)
DAV:   1    -0.627608021221E+03   -0.35305E-03   -0.83127E-02 21504   0.564E-01    0.997E-02
DAV:   2    -0.627608228682E+03   -0.20746E-03   -0.36901E-03 29724   0.161E-01    0.137E-01
DAV:   3    -0.627608178139E+03    0.50543E-04   -0.29660E-04 18648   0.472E-02
 130 F= -.62760818E+03 E0= -.62760818E+03  d E =-.570239E-03  mag=    20.0000
       N       E                     dE             d eps       ncg     rms          rms(c)
DAV:   1    -0.627608613858E+03   -0.38518E-03   -0.10967E-01 21552   0.660E-01    0.153E-01
DAV:   2    -0.627608646478E+03   -0.32620E-04   -0.39658E-03 28932   0.140E-01    0.103E-01
DAV:   3    -0.627608591767E+03    0.54711E-04   -0.29437E-04 20076   0.545E-02
 131 F= -.62760859E+03 E0= -.62760859E+03  d E =-.413628E-03  mag=    20.0000
       N       E                     dE             d eps       ncg     rms          rms(c)
DAV:   1    -0.627608713209E+03   -0.66731E-04   -0.79192E-03 21864   0.175E-01    0.380E-02
DAV:   2    -0.627608726373E+03   -0.13163E-04   -0.21678E-04 14556   0.401E-02
 132 F= -.62760873E+03 E0= -.62760873E+03  d E =-.134606E-03  mag=    20.0000
       N       E                     dE             d eps       ncg     rms          rms(c)
DAV:   1    -0.627608942821E+03   -0.22961E-03   -0.67072E-02 21504   0.512E-01    0.960E-02
DAV:   2    -0.627609032642E+03   -0.89821E-04   -0.22020E-03 30048   0.114E-01    0.849E-02
DAV:   3    -0.627609011413E+03    0.21229E-04   -0.16732E-04 14592   0.409E-02
 133 F= -.62760901E+03 E0= -.62760901E+03  d E =-.285040E-03  mag=    20.0000
       N       E                     dE             d eps       ncg     rms          rms(c)
DAV:   1    -0.627609502318E+03   -0.46968E-03   -0.12136E-01 22044   0.730E-01    0.257E-01
DAV:   2    -0.627608735865E+03    0.76645E-03   -0.65226E-03 31188   0.197E-01    0.160E-01
DAV:   3    -0.627608612747E+03    0.12312E-03   -0.11600E-03 29796   0.103E-01    0.862E-02
DAV:   4    -0.627608568722E+03    0.44025E-04   -0.18061E-04 15144   0.395E-02
 134 F= -.62760857E+03 E0= -.62760857E+03  d E =0.442691E-03  mag=    20.0000
       N       E                     dE             d eps       ncg     rms          rms(c)
DAV:   1    -0.627608873026E+03   -0.26028E-03   -0.27358E-01 21504   0.104E+00    0.206E-01
DAV:   2    -0.627609199834E+03   -0.32681E-03   -0.94507E-03 29748   0.271E-01    0.177E-01
DAV:   3    -0.627609199378E+03    0.45605E-06   -0.15819E-03 31440   0.100E-01    0.137E-01
DAV:   4    -0.627609136238E+03    0.63140E-04   -0.23593E-04 16404   0.418E-02
 135 F= -.62760914E+03 E0= -.62760914E+03  d E =-.567516E-03  mag=    20.0000
       N       E                     dE             d eps       ncg     rms          rms(c)
DAV:   1    -0.627609471552E+03   -0.27217E-03   -0.48827E-02 21504   0.427E-01    0.888E-02
DAV:   2    -0.627609657597E+03   -0.18604E-03   -0.26660E-03 29784   0.147E-01    0.132E-01
DAV:   3    -0.627609621417E+03    0.36179E-04   -0.21092E-04 15552   0.430E-02
 136 F= -.62760962E+03 E0= -.62760962E+03  d E =-.485179E-03  mag=    20.0000
       N       E                     dE             d eps       ncg     rms          rms(c)
[...]
       N       E                     dE             d eps       ncg     rms          rms(c)
DAV:   1    -0.627629340115E+03   -0.78737E-04   -0.23377E-02 21576   0.296E-01    0.503E-02
DAV:   2    -0.627629410400E+03   -0.70286E-04   -0.62127E-04 22380   0.527E-02
 253 F= -.62762941E+03 E0= -.62762941E+03  d E =-.117560E-03  mag=    20.0000
       N       E                     dE             d eps       ncg     rms          rms(c)
DAV:   1    -0.627629458058E+03   -0.11794E-03   -0.11883E-02 21540   0.210E-01    0.430E-02
DAV:   2    -0.627629490680E+03   -0.32622E-04   -0.28104E-04 15492   0.387E-02
 254 F= -.62762949E+03 E0= -.62762949E+03  d E =-.802798E-04  mag=    20.0000
       N       E                     dE             d eps       ncg     rms          rms(c)
DAV:   1    -0.627629506135E+03   -0.48077E-04   -0.10595E-03 19920   0.633E-02    0.217E-02
DAV:   2    -0.627629507979E+03   -0.18440E-05   -0.41042E-05 11832   0.166E-02
 255 F= -.62762951E+03 E0= -.62762951E+03  d E =-.172989E-04  mag=    20.0000
       N       E                     dE             d eps       ncg     rms          rms(c)
DAV:   1    -0.627629550235E+03   -0.44100E-04   -0.29061E-02 21516   0.334E-01    0.430E-02
DAV:   2    -0.627629628923E+03   -0.78688E-04   -0.98026E-04 25224   0.700E-02
 256 F= -.62762963E+03 E0= -.62762963E+03  d E =-.120944E-03  mag=    20.0000
       N       E                     dE             d eps       ncg     rms          rms(c)
DAV:   1    -0.627629680359E+03   -0.13012E-03   -0.66567E-03 21588   0.161E-01    0.370E-02
DAV:   2    -0.627629691647E+03   -0.11288E-04   -0.37887E-04 20256   0.478E-02
 257 F= -.62762969E+03 E0= -.62762969E+03  d E =-.627240E-04  mag=    20.0000
       N       E                     dE             d eps       ncg     rms          rms(c)
DAV:   1    -0.627629747470E+03   -0.67110E-04   -0.20687E-02 21552   0.281E-01    0.329E-02
DAV:   2    -0.627629794663E+03   -0.47193E-04   -0.58126E-04 22188   0.516E-02
 258 F= -.62762979E+03 E0= -.62762979E+03  d E =-.103016E-03  mag=    20.0000
       N       E                     dE             d eps       ncg     rms          rms(c)
DAV:   1    -0.627629850216E+03   -0.10275E-03   -0.13910E-02 21552   0.229E-01    0.313E-02
DAV:   2    -0.627629878040E+03   -0.27824E-04   -0.35357E-04 17424   0.427E-02
 259 F= -.62762988E+03 E0= -.62762988E+03  d E =-.833767E-04  mag=    20.0000
       N       E                     dE             d eps       ncg     rms          rms(c)
DAV:   1    -0.627629908639E+03   -0.58423E-04   -0.15513E-03 20520   0.774E-02    0.199E-02
DAV:   2    -0.627629908270E+03    0.36841E-06   -0.49413E-05 11700   0.165E-02
 260 F= -.62762991E+03 E0= -.62762991E+03  d E =-.302304E-04  mag=    20.0000
       N       E                     dE             d eps       ncg     rms          rms(c)
DAV:   1    -0.627629489254E+03    0.41938E-03   -0.84065E-02 21504   0.564E-01    0.502E-02
DAV:   2    -0.627629699235E+03   -0.20998E-03   -0.22006E-03 24108   0.934E-02    0.292E-02
DAV:   3    -0.627629696841E+03    0.23935E-05   -0.46002E-05 11628   0.171E-02
 261 F= -.62762970E+03 E0= -.62762970E+03  d E =0.211429E-03  mag=    20.0000
       N       E                     dE             d eps       ncg     rms          rms(c)
DAV:   1    -0.627629666138E+03    0.33096E-04   -0.10034E-01 21504   0.618E-01    0.661E-02
DAV:   2    -0.627629926457E+03   -0.26032E-03   -0.28035E-03 25776   0.110E-01    0.459E-02
DAV:   3    -0.627629924425E+03    0.20321E-05   -0.77682E-05 11940   0.248E-02
 262 F= -.62762992E+03 E0= -.62762992E+03  d E =-.227584E-03  mag=    20.0000
       N       E                     dE             d eps       ncg     rms          rms(c)
DAV:   1    -0.627629928906E+03   -0.24488E-05   -0.11671E-03 20196   0.678E-02    0.299E-02
DAV:   2    -0.627629925987E+03    0.29186E-05   -0.11298E-04 14352   0.321E-02
 263 F= -.62762993E+03 E0= -.62762993E+03  d E =-.156229E-05  mag=    20.0000
       N       E                     dE             d eps       ncg     rms          rms(c)
DAV:   1    -0.627629965530E+03   -0.36624E-04   -0.33425E-02 21504   0.357E-01    0.518E-02
DAV:   2    -0.627630043198E+03   -0.77669E-04   -0.91070E-04 23556   0.641E-02
 264 F= -.62763004E+03 E0= -.62763004E+03  d E =-.117211E-03  mag=    20.0000
       N       E                     dE             d eps       ncg     rms          rms(c)
DAV:   1    -0.627630107383E+03   -0.14185E-03   -0.34522E-03 22344   0.120E-01    0.377E-02
DAV:   2    -0.627630094853E+03    0.12530E-04   -0.15409E-04 14064   0.357E-02
 265 F= -.62763009E+03 E0= -.62763009E+03  d E =-.516547E-04  mag=    20.0000
       N       E                     dE             d eps       ncg     rms          rms(c)
DAV:   1    -0.627630045122E+03    0.62260E-04   -0.16629E-02 21600   0.250E-01    0.946E-02
DAV:   2    -0.627629973505E+03    0.71618E-04   -0.88673E-04 24864   0.750E-02
 266 F= -.62762997E+03 E0= -.62762997E+03  d E =0.121348E-03  mag=    20.0000
       N       E                     dE             d eps       ncg     rms          rms(c)
DAV:   1    -0.627630196051E+03   -0.15093E-03   -0.74519E-02 21504   0.538E-01    0.127E-01
DAV:   2    -0.627630197469E+03   -0.14185E-05   -0.33593E-03 29256   0.139E-01    0.109E-01
DAV:   3    -0.627630164495E+03    0.32974E-04   -0.25647E-04 17088   0.519E-02
 267 F= -.62763016E+03 E0= -.62763016E+03  d E =-.190990E-03  mag=    20.0000
       N       E                     dE             d eps       ncg     rms          rms(c)
DAV:   1    -0.627630232371E+03   -0.34901E-04   -0.80092E-03 21456   0.176E-01    0.320E-02
DAV:   2    -0.627630255132E+03   -0.22761E-04   -0.33639E-04 18240   0.404E-02
 268 F= -.62763026E+03 E0= -.62763026E+03  d E =-.906367E-04  mag=    20.0000
       N       E                     dE             d eps       ncg     rms          rms(c)
DAV:   1    -0.627630378360E+03   -0.14599E-03   -0.46164E-02 21600   0.433E-01    0.134E-01
DAV:   2    -0.627630298131E+03    0.80229E-04   -0.19279E-03 27936   0.108E-01    0.943E-02
DAV:   3    -0.627630272934E+03    0.25197E-04   -0.16364E-04 16080   0.482E-02
 269 F= -.62763027E+03 E0= -.62763027E+03  d E =-.178020E-04  mag=    20.0000
       N       E                     dE             d eps       ncg     rms          rms(c)
DAV:   1    -0.627630415594E+03   -0.11746E-03   -0.93065E-03 21600   0.192E-01    0.559E-02
DAV:   2    -0.627630411509E+03    0.40852E-05   -0.41323E-04 19296   0.511E-02
 270 F= -.62763041E+03 E0= -.62763041E+03  d E =-.138575E-03  mag=    20.0000
       N       E                     dE             d eps       ncg     rms          rms(c)
DAV:   1    -0.627630483265E+03   -0.67671E-04   -0.24329E-02 21504   0.310E-01    0.103E-01
DAV:   2    -0.627630459619E+03    0.23646E-04   -0.91939E-04 25692   0.771E-02
 271 F= -.62763046E+03 E0= -.62763046E+03  d E =-.481103E-04  mag=    20.0000
       N       E                     dE             d eps       ncg     rms          rms(c)
DAV:   1    -0.627630562318E+03   -0.79054E-04   -0.15940E-02 21564   0.250E-01    0.667E-02
DAV:   2    -0.627630553370E+03    0.89483E-05   -0.83336E-04 26208   0.699E-02
 272 F= -.62763055E+03 E0= -.62763055E+03  d E =-.937511E-04  mag=    20.0000
       N       E                     dE             d eps       ncg     rms          rms(c)
DAV:   1    -0.627630548813E+03    0.13506E-04   -0.40675E-02 21504   0.398E-01    0.852E-02
DAV:   2    -0.627630635896E+03   -0.87084E-04   -0.13875E-03 27696   0.859E-02    0.649E-02
DAV:   3    -0.627630625031E+03    0.10866E-04   -0.94444E-05 14736   0.307E-02
 273 F= -.62763063E+03 E0= -.62763063E+03  d E =-.716607E-04  mag=    20.0000
       N       E                     dE             d eps       ncg     rms          rms(c)
DAV:   1    -0.627630624856E+03    0.11040E-04   -0.54254E-03 22344   0.151E-01    0.420E-02
DAV:   2    -0.627630612465E+03    0.12391E-04   -0.20026E-04 13884   0.359E-02
 274 F= -.62763061E+03 E0= -.62763061E+03  d E =0.125659E-04  mag=    20.0000
       N       E                     dE             d eps       ncg     rms          rms(c)
DAV:   1    -0.627630772636E+03   -0.14778E-03   -0.14171E-01 21720   0.762E-01    0.202E-01
DAV:   2    -0.627630615088E+03    0.15755E-03   -0.57505E-03 29208   0.175E-01    0.136E-01
DAV:   3    -0.627630548701E+03    0.66387E-04   -0.65431E-04 23664   0.770E-02
 275 F= -.62763055E+03 E0= -.62763055E+03  d E =0.637643E-04  mag=    20.0000
       N       E                     dE             d eps       ncg     rms          rms(c)
DAV:   1    -0.627633842685E+03   -0.32276E-02   -0.23310E-01 22224   0.103E+00    0.466E-01
DAV:   2    -0.627630980931E+03    0.28618E-02   -0.19866E-02 31656   0.348E-01    0.331E-01
DAV:   3    -0.627630482773E+03    0.49816E-03   -0.37489E-03 30624   0.170E-01    0.120E-01
DAV:   4    -0.627630374000E+03    0.10877E-03   -0.47326E-04 23220   0.585E-02    0.805E-02
DAV:   5    -0.627630359294E+03    0.14706E-04   -0.14038E-04 13764   0.361E-02
 276 F= -.62763036E+03 E0= -.62763036E+03  d E =0.189407E-03  mag=    20.0000
       N       E                     dE             d eps       ncg     rms          rms(c)
DAV:   1    -0.627631779384E+03   -0.14054E-02   -0.19084E-01 21876   0.897E-01    0.300E-01
DAV:   2    -0.627631171975E+03    0.60741E-03   -0.12235E-02 31320   0.278E-01    0.282E-01
DAV:   3    -0.627630871030E+03    0.30094E-03   -0.16684E-03 30612   0.111E-01    0.121E-01
DAV:   4    -0.627630818466E+03    0.52564E-04   -0.21928E-04 17280   0.428E-02
 277 F= -.62763082E+03 E0= -.62763082E+03  d E =-.459172E-03  mag=    20.0000
       N       E                     dE             d eps       ncg     rms          rms(c)
DAV:   1    -0.627630834967E+03    0.36063E-04   -0.26521E-02 21504   0.304E-01    0.784E-02
DAV:   2    -0.627630891261E+03   -0.56294E-04   -0.16079E-03 28116   0.960E-02    0.995E-02
DAV:   3    -0.627630865086E+03    0.26175E-04   -0.13619E-04 14424   0.311E-02
 278 F= -.62763087E+03 E0= -.62763087E+03  d E =-.466205E-04  mag=    20.0000
       N       E                     dE             d eps       ncg     rms          rms(c)
DAV:   1    -0.627630972221E+03   -0.80960E-04   -0.28229E-02 21504   0.332E-01    0.672E-02
DAV:   2    -0.627631047769E+03   -0.75548E-04   -0.12176E-03 26640   0.743E-02    0.477E-02
DAV:   3    -0.627631031454E+03    0.16316E-04   -0.75524E-05 12012   0.254E-02
 279 F= -.62763103E+03 E0= -.62763103E+03  d E =-.166367E-03  mag=    20.0000
       N       E                     dE             d eps       ncg     rms          rms(c)
DAV:   1    -0.627631174683E+03   -0.12691E-03   -0.17072E-02 22080   0.267E-01    0.881E-02
DAV:   2    -0.627631094104E+03    0.80580E-04   -0.79982E-04 24924   0.685E-02
 280 F= -.62763109E+03 E0= -.62763109E+03  d E =-.626501E-04  mag=    20.0000
       N       E                     dE             d eps       ncg     rms          rms(c)
DAV:   1    -0.627631124173E+03    0.50510E-04   -0.68706E-03 21648   0.160E-01    0.364E-02
DAV:   2    -0.627631138686E+03   -0.14513E-04   -0.31509E-04 17400   0.438E-02
 281 F= -.62763114E+03 E0= -.62763114E+03  d E =-.445826E-04  mag=    20.0000
       N       E                     dE             d eps       ncg     rms          rms(c)
DAV:   1    -0.627631176092E+03   -0.51919E-04   -0.64439E-03 21492   0.158E-01    0.287E-02
DAV:   2    -0.627631184520E+03   -0.84288E-05   -0.17492E-04 13464   0.357E-02
 282 F= -.62763118E+03 E0= -.62763118E+03  d E =-.458341E-04  mag=    20.0000
       N       E                     dE             d eps       ncg     rms          rms(c)
DAV:   1    -0.627631271007E+03   -0.94915E-04   -0.46258E-02 21528   0.427E-01    0.992E-02
DAV:   2    -0.627631296453E+03   -0.25446E-04   -0.20703E-03 31104   0.113E-01    0.928E-02
DAV:   3    -0.627631265427E+03    0.31025E-04   -0.19414E-04 16152   0.420E-02
 283 F= -.62763127E+03 E0= -.62763127E+03  d E =-.809067E-04  mag=    20.0000
       N       E                     dE             d eps       ncg     rms          rms(c)
DAV:   1    -0.627631315938E+03   -0.19485E-04   -0.88087E-03 21504   0.182E-01    0.572E-02
DAV:   2    -0.627631330752E+03   -0.14815E-04   -0.63191E-04 25560   0.705E-02
 284 F= -.62763133E+03 E0= -.62763133E+03  d E =-.653250E-04  mag=    20.0000
       N       E                     dE             d eps       ncg     rms          rms(c)
DAV:   1    -0.627631420803E+03   -0.10487E-03   -0.35422E-02 21912   0.378E-01    0.922E-02
DAV:   2    -0.627631423231E+03   -0.24288E-05   -0.17825E-03 29628   0.971E-02    0.779E-02
DAV:   3    -0.627631393297E+03    0.29934E-04   -0.17808E-04 16080   0.392E-02
 285 F= -.62763139E+03 E0= -.62763139E+03  d E =-.625453E-04  mag=    20.0000
       N       E                     dE             d eps       ncg     rms          rms(c)
DAV:   1    -0.627631453676E+03   -0.30445E-04   -0.14010E-02 21528   0.235E-01    0.430E-02
DAV:   2    -0.627631491376E+03   -0.37700E-04   -0.64386E-04 24936   0.607E-02
 286 F= -.62763149E+03 E0= -.62763149E+03  d E =-.980784E-04  mag=    20.0000
       N       E                     dE             d eps       ncg     rms          rms(c)
DAV:   1    -0.627631533115E+03   -0.79439E-04   -0.79752E-03 21732   0.178E-01    0.449E-02
DAV:   2    -0.627631535006E+03   -0.18909E-05   -0.31860E-04 18504   0.434E-02
 287 F= -.62763154E+03 E0= -.62763154E+03  d E =-.436304E-04  mag=    20.0000
       N       E                     dE             d eps       ncg     rms          rms(c)
DAV:   1    -0.627631577536E+03   -0.44421E-04   -0.61181E-03 22068   0.159E-01    0.509E-02
DAV:   2    -0.627631560752E+03    0.16784E-04   -0.21804E-04 13512   0.375E-02
 288 F= -.62763156E+03 E0= -.62763156E+03  d E =-.257461E-04  mag=    20.0000
       N       E                     dE             d eps       ncg     rms          rms(c)
DAV:   1    -0.627631571785E+03    0.57510E-05   -0.54393E-04 19980   0.491E-02    0.248E-02
DAV:   2    -0.627631572307E+03   -0.52199E-06   -0.28641E-05 11724   0.147E-02
 289 F= -.62763157E+03 E0= -.62763157E+03  d E =-.115546E-04  mag=    20.0000
       N       E                     dE             d eps       ncg     rms          rms(c)
DAV:   1    -0.627631619586E+03   -0.47801E-04   -0.12609E-02 21504   0.220E-01    0.422E-02
DAV:   2    -0.627631639261E+03   -0.19675E-04   -0.43344E-04 19836   0.504E-02
 290 F= -.62763164E+03 E0= -.62763164E+03  d E =-.669538E-04  mag=    20.0000
       N       E                     dE             d eps       ncg     rms          rms(c)
DAV:   1    -0.627631709064E+03   -0.89478E-04   -0.26370E-03 22920   0.113E-01    0.670E-02
DAV:   2    -0.627631645916E+03    0.63148E-04   -0.24034E-04 14592   0.431E-02
 291 F= -.62763165E+03 E0= -.62763165E+03  d E =-.665523E-05  mag=    20.0000
       N       E                     dE             d eps       ncg     rms          rms(c)
DAV:   1    -0.627631400932E+03    0.30813E-03   -0.51829E-02 21504   0.436E-01    0.959E-02
DAV:   2    -0.627631534102E+03   -0.13317E-03   -0.20732E-03 27024   0.107E-01    0.938E-02
DAV:   3    -0.627631520388E+03    0.13714E-04   -0.15184E-04 14568   0.352E-02
 292 F= -.62763152E+03 E0= -.62763152E+03  d E =0.125528E-03  mag=    20.0000
       N       E                     dE             d eps       ncg     rms          rms(c)
DAV:   1    -0.627631595019E+03   -0.60917E-04   -0.16802E-02 21504   0.251E-01    0.627E-02
DAV:   2    -0.627631650185E+03   -0.55166E-04   -0.11912E-03 28464   0.802E-02    0.776E-02
DAV:   3    -0.627631622314E+03    0.27871E-04   -0.92089E-05 13236   0.285E-02
 293 F= -.62763162E+03 E0= -.62763162E+03  d E =-.101926E-03  mag=    20.0000
       N       E                     dE             d eps       ncg     rms          rms(c)
DAV:   1    -0.627631682710E+03   -0.32525E-04   -0.19252E-02 21504   0.276E-01    0.647E-02
DAV:   2    -0.627631702597E+03   -0.19886E-04   -0.66810E-04 25128   0.623E-02
 294 F= -.62763170E+03 E0= -.62763170E+03  d E =-.802826E-04  mag=    20.0000
       N       E                     dE             d eps       ncg     rms          rms(c)
DAV:   1    -0.627631740499E+03   -0.57789E-04   -0.87365E-03 21528   0.184E-01    0.287E-02
DAV:   2    -0.627631755978E+03   -0.15480E-04   -0.29586E-04 17520   0.487E-02
 295 F= -.62763176E+03 E0= -.62763176E+03  d E =-.533819E-04  mag=    20.0000
       N       E                     dE             d eps       ncg     rms          rms(c)
DAV:   1    -0.627631794884E+03   -0.54385E-04   -0.81169E-02 21504   0.561E-01    0.856E-02
DAV:   2    -0.627631932432E+03   -0.13755E-03   -0.25416E-03 27948   0.107E-01    0.618E-02
DAV:   3    -0.627631913188E+03    0.19244E-04   -0.11326E-04 14388   0.341E-02
 296 F= -.62763191E+03 E0= -.62763191E+03  d E =-.157209E-03  mag=    20.0000
       N       E                     dE             d eps       ncg     rms          rms(c)
DAV:   1    -0.627631927890E+03    0.45420E-05   -0.48571E-03 21444   0.138E-01    0.322E-02
DAV:   2    -0.627631937404E+03   -0.95142E-05   -0.18499E-04 13776   0.338E-02
 297 F= -.62763194E+03 E0= -.62763194E+03  d E =-.242159E-04  mag=    20.0000
       N       E                     dE             d eps       ncg     rms          rms(c)
DAV:   1    -0.627631977390E+03   -0.49500E-04   -0.17175E-02 21576   0.257E-01    0.420E-02
DAV:   2    -0.627632011655E+03   -0.34266E-04   -0.51749E-04 20868   0.520E-02
 298 F= -.62763201E+03 E0= -.62763201E+03  d E =-.742515E-04  mag=    20.0000
       N       E                     dE             d eps       ncg     rms          rms(c)
DAV:   1    -0.627632028372E+03   -0.50983E-04   -0.18700E-02 21504   0.266E-01    0.647E-02
DAV:   2    -0.627632049068E+03   -0.20696E-04   -0.78630E-04 24624   0.650E-02
 299 F= -.62763205E+03 E0= -.62763205E+03  d E =-.374126E-04  mag=    20.0000
       N       E                     dE             d eps       ncg     rms          rms(c)
DAV:   1    -0.627632077210E+03   -0.48838E-04   -0.26983E-03 20232   0.100E-01    0.351E-02
DAV:   2    -0.627632082934E+03   -0.57235E-05   -0.19417E-04 16296   0.312E-02
 300 F= -.62763208E+03 E0= -.62763208E+03  d E =-.338661E-04  mag=    20.0000
       N       E                     dE             d eps       ncg     rms          rms(c)
DAV:   1    -0.627632143078E+03   -0.65868E-04   -0.16155E-02 21504   0.252E-01    0.552E-02
DAV:   2    -0.627632154216E+03   -0.11138E-04   -0.52743E-04 21924   0.537E-02
 301 F= -.62763215E+03 E0= -.62763215E+03  d E =-.712821E-04  mag=    20.0000
       N       E                     dE             d eps       ncg     rms          rms(c)
DAV:   1    -0.627632156046E+03   -0.12967E-04   -0.19669E-04 15552   0.351E-02    0.348E-02
DAV:   2    -0.627632150848E+03    0.51978E-05   -0.40186E-05 11892   0.215E-02
 302 F= -.62763215E+03 E0= -.62763215E+03  d E =0.336820E-05  mag=    20.0000
       N       E                     dE             d eps       ncg     rms          rms(c)
DAV:   1    -0.627632140721E+03    0.15324E-04   -0.41311E-02 21504   0.398E-01    0.571E-02
DAV:   2    -0.627632254693E+03   -0.11397E-03   -0.12010E-03 25800   0.827E-02    0.563E-02
DAV:   3    -0.627632254559E+03    0.13404E-06   -0.45643E-05 11580   0.237E-02
 303 F= -.62763225E+03 E0= -.62763225E+03  d E =-.103711E-03  mag=    20.0000
       N       E                     dE             d eps       ncg     rms          rms(c)
DAV:   1    -0.627632282135E+03   -0.27442E-04   -0.67718E-03 21360   0.161E-01    0.315E-02
DAV:   2    -0.627632298479E+03   -0.16344E-04   -0.19251E-04 13500   0.397E-02
 304 F= -.62763230E+03 E0= -.62763230E+03  d E =-.439199E-04  mag=    20.0000
       N       E                     dE             d eps       ncg     rms          rms(c)
DAV:   1    -0.627632331368E+03   -0.49233E-04   -0.59609E-03 21588   0.151E-01    0.311E-02
DAV:   2    -0.627632336000E+03   -0.46318E-05   -0.17067E-04 14256   0.361E-02
 305 F= -.62763234E+03 E0= -.62763234E+03  d E =-.375210E-04  mag=    20.0000
