       N       E                     dE             d eps       ncg     rms          rms(c)
DAV:   1     0.551233729916E+04    0.55123E+04   -0.19754E+05 21504   0.125E+03
DAV:   2     0.489567540441E+03   -0.50228E+04   -0.46256E+04 22224   0.349E+02
DAV:   3    -0.719125244087E+03   -0.12087E+04   -0.11716E+04 25512   0.178E+02
DAV:   4    -0.823392763724E+03   -0.10427E+03   -0.10277E+03 32184   0.597E+01
DAV:   5    -0.827239130424E+03   -0.38464E+01   -0.38025E+01 33996   0.129E+01
DAV:   6    -0.827406911136E+03   -0.16778E+00   -0.16662E+00 33948   0.239E+00
DAV:   7    -0.827415594152E+03   -0.86830E-02   -0.86552E-02 34116   0.553E-01
DAV:   8    -0.827416153023E+03   -0.55887E-03   -0.55798E-03 28272   0.123E-01
DAV:   9    -0.827416192656E+03   -0.39633E-04   -0.39576E-04 20436   0.375E-02
DAV:  10    -0.827416196803E+03   -0.41470E-05   -0.41328E-05 17640   0.171E-02
DAV:  11    -0.827416198381E+03   -0.15776E-05   -0.15700E-05 16440   0.118E-02
DAV:  12    -0.827416199289E+03   -0.90882E-06   -0.90648E-06 16056   0.883E-03    0.115E+02
DAV:  13    -0.647201361984E+03    0.18021E+03   -0.12943E+03 32112   0.818E+01    0.941E+01
DAV:  14    -0.901608737213E+03   -0.25441E+03   -0.39911E+03 36576   0.166E+02    0.195E+02
DAV:  15    -0.791097183939E+03    0.11051E+03   -0.12087E+03 33144   0.769E+01    0.119E+02
DAV:  16    -0.682081616369E+03    0.10902E+03   -0.33719E+02 35052   0.825E+01    0.616E+01
DAV:  17    -0.658991703249E+03    0.23090E+02   -0.19258E+02 34596   0.476E+01    0.550E+01
DAV:  18    -0.702494813704E+03   -0.43503E+02   -0.40899E+02 36756   0.655E+01    0.538E+01
DAV:  19    -0.643008737877E+03    0.59486E+02   -0.89236E+02 33888   0.572E+01    0.335E+01
DAV:  20    -0.620261933815E+03    0.22747E+02   -0.23608E+02 31740   0.350E+01    0.356E+01
DAV:  21    -0.622488488612E+03   -0.22266E+01   -0.77131E+01 32244   0.253E+01    0.297E+01
DAV:  22    -0.629702809765E+03   -0.72143E+01   -0.63033E+01 33972   0.265E+01    0.271E+01
DAV:  23    -0.623448080142E+03    0.62547E+01   -0.61712E+01 31380   0.194E+01    0.280E+01
DAV:  24    -0.623835734790E+03   -0.38765E+00   -0.11436E+01 32844   0.952E+00    0.262E+01
DAV:  25    -0.623300018073E+03    0.53572E+00   -0.52577E+00 32736   0.611E+00    0.240E+01
DAV:  26    -0.622491597012E+03    0.80842E+00   -0.37592E+00 31452   0.610E+00    0.193E+01
DAV:  27    -0.621898050767E+03    0.59355E+00   -0.20631E+00 31008   0.349E+00    0.169E+01
DAV:  28    -0.622001549720E+03   -0.10350E+00   -0.98329E-01 30600   0.159E+00    0.157E+01
DAV:  29    -0.621812186706E+03    0.18936E+00   -0.24726E-01 31056   0.111E+00    0.159E+01
DAV:  30    -0.621836728766E+03   -0.24542E-01   -0.30707E+00 32700   0.142E+00    0.159E+01
DAV:  31    -0.621678256719E+03    0.15847E+00   -0.11445E-01 28536   0.630E-01    0.155E+01
DAV:  32    -0.621683844579E+03   -0.55879E-02   -0.13976E-01 29376   0.280E-01    0.155E+01
DAV:  33    -0.621681540230E+03    0.23043E-02   -0.34499E-03 24792   0.122E-01    0.155E+01
DAV:  34    -0.621799646947E+03   -0.11811E+00   -0.29097E-01 33624   0.673E-01    0.160E+01
DAV:  35    -0.621750611886E+03    0.49035E-01   -0.60595E-01 31968   0.772E-01    0.161E+01
DAV:  36    -0.621836120231E+03   -0.85508E-01   -0.56477E-02 26316   0.366E-01    0.166E+01
DAV:  37    -0.621923603918E+03   -0.87484E-01   -0.28918E-02 33648   0.345E-01    0.167E+01
DAV:  38    -0.621921241441E+03    0.23625E-02   -0.40918E-03 25248   0.119E-01    0.167E+01
DAV:  39    -0.621878808946E+03    0.42432E-01   -0.19320E-02 29964   0.164E-01    0.165E+01
DAV:  40    -0.621884446553E+03   -0.56376E-02   -0.32430E-03 23712   0.103E-01    0.166E+01
DAV:  41    -0.621918533262E+03   -0.34087E-01   -0.10065E-02 33924   0.209E-01    0.166E+01
DAV:  42    -0.621925676940E+03   -0.71437E-02   -0.63655E-03 26700   0.133E-01    0.167E+01
DAV:  43    -0.622095784201E+03   -0.17011E+00   -0.15324E-01 34104   0.472E-01    0.177E+01
DAV:  44    -0.622086452634E+03    0.93316E-02   -0.97341E-03 23964   0.181E-01    0.177E+01
DAV:  45    -0.622071598878E+03    0.14854E-01   -0.40316E-03 27492   0.108E-01    0.176E+01
DAV:  46    -0.622086181993E+03   -0.14583E-01   -0.56208E-03 29976   0.169E-01    0.175E+01
DAV:  47    -0.622070695604E+03    0.15486E-01   -0.74709E-03 28008   0.121E-01    0.173E+01
DAV:  48    -0.622136837318E+03   -0.66142E-01   -0.34237E-02 30432   0.240E-01    0.175E+01
DAV:  49    -0.622261361764E+03   -0.12452E+00   -0.22096E-01 33744   0.449E-01    0.184E+01
DAV:  50    -0.622076451751E+03    0.18491E+00   -0.17775E-01 28608   0.332E-01    0.171E+01
DAV:  51    -0.621758390524E+03    0.31806E+00   -0.12295E+00 29652   0.913E-01    0.147E+01
DAV:  52    -0.621663491240E+03    0.94899E-01   -0.12734E-01 28692   0.727E-01    0.140E+01
DAV:  53    -0.621539285817E+03    0.12421E+00   -0.67652E-02 29892   0.611E-01    0.135E+01
DAV:  54    -0.621161800668E+03    0.37749E+00   -0.35771E-01 34512   0.209E+00    0.123E+01
DAV:  55    -0.620940596140E+03    0.22120E+00   -0.10115E+00 31488   0.183E+00    0.118E+01
DAV:  56    -0.620625715358E+03    0.31488E+00   -0.12311E+00 31032   0.225E+00    0.113E+01
DAV:  57    -0.620476221622E+03    0.14949E+00   -0.42370E-01 30180   0.168E+00    0.112E+01
DAV:  58    -0.616777975158E+03    0.36982E+01   -0.62946E+00 33336   0.135E+01    0.198E+01
DAV:  59    -0.616971904604E+03   -0.19393E+00   -0.35794E+00 27156   0.317E+00    0.193E+01
DAV:  60    -0.616915741166E+03    0.56163E-01   -0.32378E-01 30924   0.154E+00    0.178E+01
DAV:  61    -0.616636990144E+03    0.27875E+00   -0.64566E-01 30852   0.184E+00    0.176E+01
DAV:  62    -0.615857647711E+03    0.77934E+00   -0.11653E+00 29904   0.286E+00    0.166E+01
DAV:  63    -0.615678204843E+03    0.17944E+00   -0.10528E+01 31392   0.598E+00    0.190E+01
DAV:  64    -0.615626244791E+03    0.51960E-01   -0.12086E+00 26472   0.196E+00    0.185E+01
DAV:  65    -0.615849436617E+03   -0.22319E+00   -0.31028E-01 31896   0.888E-01    0.197E+01
DAV:  66    -0.615859320929E+03   -0.98843E-02   -0.41729E-01 31320   0.173E+00    0.201E+01
DAV:  67    -0.614802145910E+03    0.10572E+01   -0.20763E+00 29688   0.273E+00    0.187E+01
DAV:  68    -0.611270413060E+03    0.35317E+01   -0.74034E+00 28020   0.559E+00    0.171E+01
DAV:  69    -0.608936649055E+03    0.23338E+01   -0.37777E+00 26580   0.343E+00    0.174E+01
DAV:  70    -0.605769001814E+03    0.31676E+01   -0.12721E+00 26292   0.192E+00    0.176E+01
DAV:  71    -0.598863676318E+03    0.69053E+01   -0.19937E+00 25620   0.256E+00    0.180E+01
DAV:  72    -0.599201437245E+03   -0.33776E+00   -0.17935E-01 24648   0.874E-01    0.180E+01
DAV:  73    -0.609529749506E+03   -0.10328E+02   -0.12735E+01 26844   0.775E+00    0.210E+01
DAV:  74    -0.608431579486E+03    0.10982E+01   -0.20094E+00 26280   0.277E+00    0.207E+01
DAV:  75    -0.603819942635E+03    0.46116E+01   -0.97724E-01 25464   0.278E+00    0.215E+01
DAV:  76    -0.582431731523E+03    0.21388E+02   -0.50578E+00 24444   0.624E+00    0.238E+01
DAV:  77    -0.579618755207E+03    0.28130E+01   -0.13803E+00 27084   0.207E+00    0.243E+01
DAV:  78    -0.612317597781E+03   -0.32699E+02   -0.11353E+01 27096   0.125E+01    0.218E+01
DAV:  79    -0.609894141639E+03    0.24235E+01   -0.36314E+00 26784   0.437E+00    0.211E+01
DAV:  80    -0.609920795396E+03   -0.26654E-01   -0.91991E-01 26688   0.207E+00    0.211E+01
DAV:  81    -0.611917319719E+03   -0.19965E+01   -0.42520E-01 25908   0.130E+00    0.210E+01
DAV:  82    -0.615729387639E+03   -0.38121E+01   -0.11954E+00 27684   0.278E+00    0.207E+01
DAV:  83    -0.621015335571E+03   -0.52859E+01   -0.11695E+01 29784   0.598E+00    0.245E+01
DAV:  84    -0.622244279819E+03   -0.12289E+01   -0.17665E+00 28692   0.281E+00    0.255E+01
DAV:  85    -0.623233568190E+03   -0.98929E+00   -0.65098E+00 30936   0.265E+00    0.279E+01
DAV:  86    -0.623606076275E+03   -0.37251E+00   -0.16846E+00 27888   0.324E+00    0.302E+01
DAV:  87    -0.621829994436E+03    0.17761E+01   -0.17468E+00 27492   0.341E+00    0.315E+01
DAV:  88    -0.622848989638E+03   -0.10190E+01   -0.49147E+00 29424   0.784E+00    0.254E+01
DAV:  89    -0.622895178567E+03   -0.46189E-01   -0.27801E+00 31212   0.443E+00    0.236E+01
DAV:  90    -0.621937511117E+03    0.95767E+00   -0.92806E-01 28824   0.296E+00    0.227E+01
DAV:  91    -0.621001808476E+03    0.93570E+00   -0.11292E+00 27636   0.258E+00    0.217E+01
DAV:  92    -0.620727856477E+03    0.27395E+00   -0.39772E+00 27120   0.156E+00    0.161E+01
DAV:  93    -0.621881188509E+03   -0.11533E+01   -0.32539E+00 30192   0.399E+00    0.174E+01
DAV:  94    -0.621579481379E+03    0.30171E+00   -0.58336E+00 31812   0.274E+00    0.120E+01
DAV:  95    -0.621450639358E+03    0.12884E+00   -0.37550E-01 28776   0.145E+00    0.116E+01
DAV:  96    -0.621157658974E+03    0.29298E+00   -0.11211E-01 28836   0.933E-01    0.112E+01
DAV:  97    -0.620834367114E+03    0.32329E+00   -0.10891E-01 28848   0.878E-01    0.108E+01
DAV:  98    -0.621553172035E+03   -0.71880E+00   -0.10731E+00 30576   0.349E+00    0.150E+01
DAV:  99    -0.620974218171E+03    0.57895E+00   -0.18765E+00 31488   0.260E+00    0.114E+01
DAV: 100    -0.620875180337E+03    0.99038E-01   -0.66507E-01 30672   0.177E+00
   1 F= -.62087518E+03 E0= -.62082145E+03  d E =-.620875E+03  mag=    15.8399
       N       E                     dE             d eps       ncg     rms          rms(c)
DAV:   1    -0.621398578624E+03   -0.42436E+00   -0.53018E+02 21504   0.450E+01    0.159E+01
DAV:   2    -0.624287443208E+03   -0.28889E+01   -0.34609E+01 31344   0.164E+01    0.171E+01
DAV:   3    -0.623456855584E+03    0.83059E+00   -0.69247E+00 28584   0.863E+00    0.990E+00
DAV:   4    -0.624519358707E+03   -0.10625E+01   -0.13738E+01 34500   0.991E+00    0.689E+00
DAV:   5    -0.624167903494E+03    0.35146E+00   -0.23281E+00 32436   0.126E+01    0.723E+00
DAV:   6    -0.624104766269E+03    0.63137E-01   -0.94339E-01 32364   0.932E+00    0.108E+01
DAV:   7    -0.623848848264E+03    0.25592E+00   -0.13606E+00 30900   0.420E+00    0.799E+00
DAV:   8    -0.623776748297E+03    0.72100E-01   -0.13714E+00 30744   0.354E+00    0.447E+00
DAV:   9    -0.623604327811E+03    0.17242E+00   -0.50111E-01 29664   0.250E+00    0.212E+00
DAV:  10    -0.623726619630E+03   -0.12229E+00   -0.15998E+00 33072   0.236E+00    0.256E+00
DAV:  11    -0.623673925090E+03    0.52695E-01   -0.12399E+00 35484   0.249E+00    0.428E+00
DAV:  12    -0.623634371187E+03    0.39554E-01   -0.57815E-01 31176   0.156E+00    0.306E+00
DAV:  13    -0.623611365269E+03    0.23006E-01   -0.55591E-01 32064   0.137E+00    0.186E+00
DAV:  14    -0.623619077265E+03   -0.77120E-02   -0.24223E-01 32292   0.801E-01    0.169E+00
DAV:  15    -0.623617004631E+03    0.20726E-02   -0.31995E-01 33240   0.827E-01    0.114E+00
DAV:  16    -0.623614156733E+03    0.28479E-02   -0.11351E-01 29412   0.580E-01    0.691E-01
DAV:  17    -0.623618374112E+03   -0.42174E-02   -0.11559E-01 30132   0.458E-01    0.503E-01
DAV:  18    -0.623617166969E+03    0.12071E-02   -0.47871E-02 29928   0.350E-01    0.437E-01
DAV:  19    -0.623619847350E+03   -0.26804E-02   -0.77594E-03 29568   0.179E-01    0.338E-01
DAV:  20    -0.623623581112E+03   -0.37338E-02   -0.65834E-03 28764   0.155E-01    0.654E-01
DAV:  21    -0.623626252974E+03   -0.26719E-02   -0.78284E-03 30432   0.289E-01    0.817E-01
DAV:  22    -0.623627208867E+03   -0.95589E-03   -0.76094E-03 28236   0.156E-01    0.606E-01
DAV:  23    -0.623628225586E+03   -0.10167E-02   -0.24690E-03 25164   0.786E-02    0.549E-01
DAV:  24    -0.623630378344E+03   -0.21528E-02   -0.72062E-03 29964   0.152E-01    0.209E-01
DAV:  25    -0.623634910322E+03   -0.45320E-02   -0.21920E-02 28692   0.198E-01    0.230E-01
DAV:  26    -0.623638506182E+03   -0.35959E-02   -0.21807E-02 26556   0.201E-01    0.236E-01
DAV:  27    -0.623640414097E+03   -0.19079E-02   -0.87821E-03 26340   0.152E-01    0.256E-01
DAV:  28    -0.623642178018E+03   -0.17639E-02   -0.41952E-03 25224   0.906E-02    0.414E-01
DAV:  29    -0.623643604573E+03   -0.14266E-02   -0.36592E-03 22752   0.783E-02    0.341E-01
DAV:  30    -0.623644379500E+03   -0.77493E-03   -0.15788E-03 19476   0.620E-02    0.316E-01
DAV:  31    -0.623645369430E+03   -0.98993E-03   -0.24291E-03 24840   0.750E-02    0.744E-02
DAV:  32    -0.623645986417E+03   -0.61699E-03   -0.10907E-03 19872   0.440E-02    0.761E-02
DAV:  33    -0.623645815659E+03    0.17076E-03   -0.18923E-04 15864   0.251E-02    0.807E-02
DAV:  34    -0.623645655864E+03    0.15979E-03   -0.81917E-05 13560   0.129E-02    0.805E-02
DAV:  35    -0.623645814309E+03   -0.15844E-03   -0.51435E-05 12828   0.122E-02    0.819E-02
DAV:  36    -0.623645756638E+03    0.57671E-04   -0.93726E-06 11904   0.647E-03
   2 F= -.62364576E+03 E0= -.62359355E+03  d E =-.277058E+01  mag=    17.2132
       N       E                     dE             d eps       ncg     rms          rms(c)
DAV:   1    -0.624126985481E+03   -0.48117E+00   -0.68623E+01 21504   0.164E+01    0.548E+00
DAV:   2    -0.624235518209E+03   -0.10853E+00   -0.36992E+00 29340   0.624E+00    0.759E+00
DAV:   3    -0.624240806036E+03   -0.52878E-02   -0.11509E+00 30612   0.341E+00    0.357E+00
DAV:   4    -0.624327798182E+03   -0.86992E-01   -0.11403E+00 33144   0.226E+00    0.405E+00
DAV:   5    -0.624610866313E+03   -0.28307E+00   -0.22535E+00 34644   0.507E+00    0.587E+00
DAV:   6    -0.624266323397E+03    0.34454E+00   -0.36183E-01 35676   0.363E+00    0.425E+00
DAV:   7    -0.624227098480E+03    0.39225E-01   -0.33815E-01 31992   0.149E+00    0.199E+00
DAV:   8    -0.624318081886E+03   -0.90983E-01   -0.15666E+00 32952   0.199E+00    0.179E+00
DAV:   9    -0.624218640466E+03    0.99441E-01   -0.45643E-02 32688   0.158E+00    0.983E-01
DAV:  10    -0.624218298746E+03    0.34172E-03   -0.89971E-02 30912   0.495E-01    0.901E-01
DAV:  11    -0.624220195150E+03   -0.18964E-02   -0.52535E-02 29568   0.345E-01    0.964E-01
DAV:  12    -0.624217830495E+03    0.23647E-02   -0.15818E-02 32640   0.266E-01    0.439E-01
DAV:  13    -0.624219928314E+03   -0.20978E-02   -0.37798E-03 29592   0.164E-01    0.504E-01
DAV:  14    -0.624219734295E+03    0.19402E-03   -0.16045E-02 27504   0.166E-01    0.446E-01
DAV:  15    -0.624219589405E+03    0.14489E-03   -0.52802E-03 25620   0.119E-01    0.281E-01
DAV:  16    -0.624220353963E+03   -0.76456E-03   -0.60192E-03 27576   0.113E-01    0.183E-01
DAV:  17    -0.624220773030E+03   -0.41907E-03   -0.28704E-03 23088   0.916E-02    0.133E-01
DAV:  18    -0.624221814451E+03   -0.10414E-02   -0.32748E-03 23784   0.761E-02    0.161E-01
DAV:  19    -0.624222783629E+03   -0.96918E-03   -0.32846E-03 23244   0.913E-02    0.129E-01
DAV:  20    -0.624224058409E+03   -0.12748E-02   -0.52769E-03 24936   0.891E-02    0.186E-01
DAV:  21    -0.624224916132E+03   -0.85772E-03   -0.41907E-03 21792   0.809E-02    0.118E-01
DAV:  22    -0.624226012895E+03   -0.10968E-02   -0.55069E-03 23904   0.781E-02    0.102E-01
DAV:  23    -0.624227396551E+03   -0.13837E-02   -0.90781E-03 23508   0.118E-01    0.205E-01
DAV:  24    -0.624227666397E+03   -0.26985E-03   -0.27508E-03 22116   0.796E-02    0.910E-02
DAV:  25    -0.624228010184E+03   -0.34379E-03   -0.12429E-03 20796   0.524E-02    0.106E-01
DAV:  26    -0.624228363098E+03   -0.35291E-03   -0.10683E-03 19872   0.439E-02    0.942E-02
DAV:  27    -0.624228580642E+03   -0.21754E-03   -0.77345E-04 19272   0.442E-02    0.463E-02
DAV:  28    -0.624228819415E+03   -0.23877E-03   -0.63844E-04 18696   0.316E-02    0.104E-01
DAV:  29    -0.624228961496E+03   -0.14208E-03   -0.40219E-04 17424   0.295E-02    0.723E-02
DAV:  30    -0.624229071142E+03   -0.10965E-03   -0.25565E-04 16116   0.217E-02    0.299E-02
DAV:  31    -0.624229085518E+03   -0.14376E-04   -0.44087E-05 12684   0.141E-02
   3 F= -.62422909E+03 E0= -.62417661E+03  d E =-.583329E+00  mag=    17.8418
       N       E                     dE             d eps       ncg     rms          rms(c)
DAV:   1    -0.624489623562E+03   -0.26055E+00   -0.14998E+02 21504   0.244E+01    0.517E+00
DAV:   2    -0.625600578120E+03   -0.11110E+01   -0.76971E+00 30300   0.795E+00    0.116E+01
DAV:   3    -0.625565833481E+03    0.34745E-01   -0.90952E-01 28368   0.247E+00    0.902E+00
DAV:   4    -0.625382738616E+03    0.18309E+00   -0.23080E-01 35016   0.205E+00    0.831E+00
DAV:   5    -0.625349124831E+03    0.33614E-01   -0.68922E-01 34692   0.347E+00    0.601E+00
DAV:   6    -0.625419024063E+03   -0.69899E-01   -0.52371E-01 32988   0.242E+00    0.391E+00
DAV:   7    -0.625433735757E+03   -0.14712E-01   -0.18620E-01 28704   0.997E-01    0.349E+00
DAV:   8    -0.625443536809E+03   -0.98011E-02   -0.35898E-02 29280   0.593E-01    0.222E+00
DAV:   9    -0.625446074029E+03   -0.25372E-02   -0.10897E-02 32160   0.554E-01    0.146E+00
DAV:  10    -0.625443127956E+03    0.29461E-02   -0.15783E-02 31764   0.432E-01    0.104E+00
DAV:  11    -0.625443748684E+03   -0.62073E-03   -0.16115E-02 31596   0.279E-01    0.528E-01
DAV:  12    -0.625446176286E+03   -0.24276E-02   -0.46727E-03 31608   0.157E-01    0.425E-01
DAV:  13    -0.625448260523E+03   -0.20842E-02   -0.16925E-03 29892   0.916E-02    0.431E-01
DAV:  14    -0.625449858973E+03   -0.15984E-02   -0.77141E-04 26940   0.725E-02    0.421E-01
DAV:  15    -0.625452552271E+03   -0.26933E-02   -0.13655E-03 31896   0.186E-01    0.434E-01
DAV:  16    -0.625455361522E+03   -0.28093E-02   -0.32902E-03 28416   0.110E-01    0.400E-01
DAV:  17    -0.625456394320E+03   -0.10328E-02   -0.15026E-03 30492   0.134E-01    0.231E-01
DAV:  18    -0.625456602826E+03   -0.20851E-03   -0.98470E-04 26412   0.712E-02    0.132E-01
DAV:  19    -0.625456575281E+03    0.27544E-04   -0.57647E-04 25392   0.663E-02
   4 F= -.62545658E+03 E0= -.62545616E+03  d E =-.122749E+01  mag=    19.9799
       N       E                     dE             d eps       ncg     rms          rms(c)
DAV:   1    -0.625760551107E+03   -0.30395E+00   -0.15645E+01 21504   0.773E+00    0.162E+00
DAV:   2    -0.625791605417E+03   -0.31054E-01   -0.49536E-01 30960   0.233E+00    0.161E+00
DAV:   3    -0.625796135986E+03   -0.45306E-02   -0.10233E-01 29268   0.718E-01    0.790E-01
DAV:   4    -0.625792830131E+03    0.33059E-02   -0.12727E-02 32376   0.310E-01    0.583E-01
DAV:   5    -0.625790559178E+03    0.22710E-02   -0.77215E-03 28608   0.285E-01    0.243E-01
DAV:   6    -0.625790766055E+03   -0.20688E-03   -0.69337E-03 29940   0.209E-01    0.144E-01
DAV:   7    -0.625790807192E+03   -0.41137E-04   -0.24257E-03 25920   0.109E-01    0.827E-02
DAV:   8    -0.625790795132E+03    0.12061E-04   -0.18738E-04 15012   0.460E-02
   5 F= -.62579080E+03 E0= -.62579080E+03  d E =-.334220E+00  mag=    19.9852
       N       E                     dE             d eps       ncg     rms          rms(c)
DAV:   1    -0.626164165436E+03   -0.37336E+00   -0.22205E+02 21504   0.300E+01    0.767E+00
DAV:   2    -0.626251356894E+03   -0.87191E-01   -0.10787E+01 30528   0.901E+00    0.869E+00
DAV:   3    -0.626057536538E+03    0.19382E+00   -0.15665E+00 30072   0.329E+00    0.514E+00
DAV:   4    -0.625993188103E+03    0.64348E-01   -0.34554E-01 31440   0.140E+00    0.374E+00
DAV:   5    -0.625979760066E+03    0.13428E-01   -0.15247E-01 29112   0.110E+00    0.193E+00
DAV:   6    -0.625962959010E+03    0.16801E-01   -0.13080E-01 32268   0.102E+00    0.600E-01
DAV:   7    -0.625963731111E+03   -0.77210E-03   -0.42130E-02 28488   0.452E-01    0.403E-01
DAV:   8    -0.625963750843E+03   -0.19731E-04   -0.64965E-03 31248   0.180E-01    0.261E-01
DAV:   9    -0.625963503597E+03    0.24725E-03   -0.20123E-03 32040   0.165E-01    0.166E-01
DAV:  10    -0.625963597218E+03   -0.93622E-04   -0.16646E-03 30528   0.952E-02    0.783E-02
DAV:  11    -0.625963555157E+03    0.42062E-04   -0.21995E-04 16296   0.471E-02
   6 F= -.62596356E+03 E0= -.62596356E+03  d E =-.172760E+00  mag=    19.9904
       N       E                     dE             d eps       ncg     rms          rms(c)
DAV:   1    -0.626342389328E+03   -0.37879E+00   -0.12707E+02 21504   0.219E+01    0.637E+00
DAV:   2    -0.626579524984E+03   -0.23714E+00   -0.88903E+00 30372   0.753E+00    0.841E+00
DAV:   3    -0.626453114599E+03    0.12641E+00   -0.88432E-01 27936   0.223E+00    0.622E+00
DAV:   4    -0.626338380470E+03    0.11473E+00   -0.48597E-01 30096   0.146E+00    0.470E+00
DAV:   5    -0.626326571127E+03    0.11809E-01   -0.34077E-01 27480   0.120E+00    0.225E+00
DAV:   6    -0.626293904489E+03    0.32667E-01   -0.14354E-01 33012   0.106E+00    0.130E+00
DAV:   7    -0.626289588758E+03    0.43157E-02   -0.12144E-01 26676   0.683E-01    0.652E-01
DAV:   8    -0.626290522631E+03   -0.93387E-03   -0.12822E-02 31068   0.355E-01    0.314E-01
DAV:   9    -0.626290591378E+03   -0.68747E-04   -0.42813E-03 30636   0.140E-01    0.240E-01
DAV:  10    -0.626290036345E+03    0.55503E-03   -0.14659E-03 31860   0.103E-01    0.161E-01
DAV:  11    -0.626289923543E+03    0.11280E-03   -0.94510E-04 24012   0.623E-02    0.784E-02
DAV:  12    -0.626289898137E+03    0.25405E-04   -0.14734E-04 12936   0.317E-02
   7 F= -.62628990E+03 E0= -.62628990E+03  d E =-.326343E+00  mag=    19.9938
       N       E                     dE             d eps       ncg     rms          rms(c)
DAV:   1    -0.626528379412E+03   -0.23846E+00   -0.28208E+01 21504   0.104E+01    0.233E+00
DAV:   2    -0.626618573702E+03   -0.90194E-01   -0.14475E+00 28968   0.293E+00    0.334E+00
DAV:   3    -0.626606828792E+03    0.11745E-01   -0.11273E-01 27108   0.743E-01    0.262E+00
DAV:   4    -0.626590463867E+03    0.16365E-01   -0.10671E-01 31680   0.702E-01    0.212E+00
DAV:   5    -0.626592961483E+03   -0.24976E-02   -0.72785E-02 29352   0.605E-01    0.120E+00
DAV:   6    -0.626585618657E+03    0.73428E-02   -0.33979E-02 31728   0.446E-01    0.836E-01
DAV:   7    -0.626582090007E+03    0.35286E-02   -0.25275E-02 29496   0.320E-01    0.375E-01
DAV:   8    -0.626582216441E+03   -0.12643E-03   -0.38967E-03 29928   0.143E-01    0.240E-01
DAV:   9    -0.626581819208E+03    0.39723E-03   -0.86179E-04 27516   0.695E-02    0.161E-01
DAV:  10    -0.626581731891E+03    0.87317E-04   -0.37733E-04 20664   0.434E-02
   8 F= -.62658173E+03 E0= -.62658173E+03  d E =-.291834E+00  mag=    19.9958
       N       E                     dE             d eps       ncg     rms          rms(c)
DAV:   1    -0.626584954984E+03   -0.31358E-02   -0.51932E+01 21504   0.143E+01    0.268E+00
DAV:   2    -0.626656763473E+03   -0.71808E-01   -0.16770E+00 29100   0.348E+00    0.237E+00
DAV:   3    -0.626657550885E+03   -0.78741E-03   -0.23452E-01 29724   0.115E+00    0.163E+00
DAV:   4    -0.626645943153E+03    0.11608E-01   -0.45149E-02 32712   0.535E-01    0.103E+00
DAV:   5    -0.626638785325E+03    0.71578E-02   -0.17353E-02 31512   0.531E-01    0.506E-01
DAV:   6    -0.626639507474E+03   -0.72215E-03   -0.25894E-02 29592   0.405E-01    0.252E-01
DAV:   7    -0.626639532781E+03   -0.25307E-04   -0.85036E-03 26832   0.189E-01    0.166E-01
DAV:   8    -0.626639463949E+03    0.68832E-04   -0.93091E-04 28896   0.868E-02
   9 F= -.62663946E+03 E0= -.62663946E+03  d E =-.577321E-01  mag=    19.9969
       N       E                     dE             d eps       ncg     rms          rms(c)
DAV:   1    -0.626666934805E+03   -0.27402E-01   -0.75548E+00 21528   0.501E+00    0.165E+00
DAV:   2    -0.626691110506E+03   -0.24176E-01   -0.54494E-01 28380   0.183E+00    0.245E+00
DAV:   3    -0.626686462350E+03    0.46482E-02   -0.59319E-02 26640   0.493E-01    0.206E+00
DAV:   4    -0.626678175657E+03    0.82867E-02   -0.73725E-02 30252   0.575E-01    0.162E+00
DAV:   5    -0.626682293030E+03   -0.41174E-02   -0.64274E-02 28152   0.545E-01    0.105E+00
DAV:   6    -0.626675819668E+03    0.64734E-02   -0.22987E-02 31428   0.387E-01    0.718E-01
DAV:   7    -0.626672768061E+03    0.30516E-02   -0.14747E-02 29136   0.226E-01    0.400E-01
DAV:   8    -0.626671858387E+03    0.90967E-03   -0.33085E-03 30948   0.126E-01    0.247E-01
DAV:   9    -0.626671501597E+03    0.35679E-03   -0.60129E-04 24108   0.625E-02    0.169E-01
DAV:  10    -0.626671296000E+03    0.20560E-03   -0.64272E-04 25632   0.510E-02    0.100E-01
DAV:  11    -0.626671239626E+03    0.56374E-04   -0.17923E-04 14052   0.302E-02
  10 F= -.62667124E+03 E0= -.62667124E+03  d E =-.317757E-01  mag=    19.9979
       N       E                     dE             d eps       ncg     rms          rms(c)
DAV:   1    -0.626729420085E+03   -0.58124E-01   -0.11677E+01 21504   0.670E+00    0.215E+00
DAV:   2    -0.626743444968E+03   -0.14025E-01   -0.70232E-01 30804   0.211E+00    0.226E+00
DAV:   3    -0.626732679788E+03    0.10765E-01   -0.89359E-02 30096   0.783E-01    0.145E+00
DAV:   4    -0.626726747237E+03    0.59326E-02   -0.34012E-02 31272   0.374E-01    0.101E+00
DAV:   5    -0.626724496670E+03    0.22506E-02   -0.11431E-02 27384   0.280E-01    0.432E-01
DAV:   6    -0.626723632323E+03    0.86435E-03   -0.89953E-03 32592   0.262E-01    0.147E-01
DAV:   7    -0.626723753998E+03   -0.12167E-03   -0.36900E-03 26976   0.119E-01    0.917E-02
DAV:   8    -0.626723691952E+03    0.62046E-04   -0.23439E-04 17088   0.542E-02
  11 F= -.62672369E+03 E0= -.62672369E+03  d E =-.524523E-01  mag=    19.9985
       N       E                     dE             d eps       ncg     rms          rms(c)
DAV:   1    -0.626744048642E+03   -0.20295E-01   -0.84189E+00 21504   0.569E+00    0.133E+00
DAV:   2    -0.626766679367E+03   -0.22631E-01   -0.39677E-01 29172   0.156E+00    0.170E+00
DAV:   3    -0.626762454756E+03    0.42246E-02   -0.44281E-02 27120   0.449E-01    0.125E+00
DAV:   4    -0.626758483330E+03    0.39714E-02   -0.46093E-02 32280   0.491E-01    0.951E-01
DAV:   5    -0.626757918868E+03    0.56446E-03   -0.15253E-02 28452   0.327E-01    0.509E-01
DAV:   6    -0.626756816525E+03    0.11023E-02   -0.85435E-03 31392   0.202E-01    0.324E-01
DAV:   7    -0.626756130507E+03    0.68602E-03   -0.47408E-03 29100   0.149E-01    0.152E-01
DAV:   8    -0.626756077407E+03    0.53100E-04   -0.75596E-04 26352   0.943E-02
  12 F= -.62675608E+03 E0= -.62675608E+03  d E =-.323855E-01  mag=    19.9989
       N       E                     dE             d eps       ncg     rms          rms(c)
DAV:   1    -0.626772764528E+03   -0.16634E-01   -0.27234E+01 21504   0.101E+01    0.191E+00
DAV:   2    -0.626803474638E+03   -0.30710E-01   -0.11332E+00 29880   0.292E+00    0.230E+00
DAV:   3    -0.626801794881E+03    0.16798E-02   -0.18000E-01 26784   0.919E-01    0.175E+00
DAV:   4    -0.626789523999E+03    0.12271E-01   -0.36921E-02 30876   0.428E-01    0.135E+00
DAV:   5    -0.626781710353E+03    0.78136E-02   -0.33723E-02 31044   0.537E-01    0.763E-01
DAV:   6    -0.626780516334E+03    0.11940E-02   -0.38812E-02 30420   0.535E-01    0.366E-01
DAV:   7    -0.626780223350E+03    0.29298E-03   -0.24904E-02 26736   0.321E-01    0.209E-01
DAV:   8    -0.626780079512E+03    0.14384E-03   -0.32906E-03 30192   0.143E-01    0.113E-01
DAV:   9    -0.626780056662E+03    0.22850E-04   -0.15122E-03 31320   0.118E-01    0.864E-02
DAV:  10    -0.626780028361E+03    0.28301E-04   -0.35960E-04 21456   0.497E-02
  13 F= -.62678003E+03 E0= -.62678003E+03  d E =-.239510E-01  mag=    19.9992
       N       E                     dE             d eps       ncg     rms          rms(c)
DAV:   1    -0.626838421042E+03   -0.58364E-01   -0.48441E+00 21504   0.423E+00    0.119E+00
DAV:   2    -0.626848835565E+03   -0.10415E-01   -0.23727E-01 31416   0.129E+00    0.131E+00
DAV:   3    -0.626847398868E+03    0.14367E-02   -0.40919E-02 28884   0.473E-01    0.878E-01
DAV:   4    -0.626844994052E+03    0.24048E-02   -0.12828E-02 30588   0.226E-01    0.611E-01
DAV:   5    -0.626843697523E+03    0.12965E-02   -0.65688E-03 27996   0.209E-01    0.248E-01
DAV:   6    -0.626843492403E+03    0.20512E-03   -0.44784E-03 32616   0.182E-01    0.132E-01
DAV:   7    -0.626843467753E+03    0.24651E-04   -0.24070E-03 26964   0.102E-01    0.681E-02
DAV:   8    -0.626843432416E+03    0.35337E-04   -0.15996E-04 13956   0.463E-02
  14 F= -.62684343E+03 E0= -.62684343E+03  d E =-.634041E-01  mag=    19.9994
       N       E                     dE             d eps       ncg     rms          rms(c)
DAV:   1    -0.626825046637E+03    0.18421E-01   -0.14599E+01 21504   0.746E+00    0.154E+00
DAV:   2    -0.626867239338E+03   -0.42193E-01   -0.67936E-01 28968   0.195E+00    0.217E+00
DAV:   3    -0.626861020830E+03    0.62185E-02   -0.52003E-02 26640   0.484E-01    0.174E+00
DAV:   4    -0.626853950852E+03    0.70700E-02   -0.62362E-02 31476   0.511E-01    0.133E+00
DAV:   5    -0.626852420210E+03    0.15306E-02   -0.27158E-02 28152   0.385E-01    0.755E-01
DAV:   6    -0.626850030606E+03    0.23896E-02   -0.14863E-02 31536   0.298E-01    0.449E-01
DAV:   7    -0.626848933575E+03    0.10970E-02   -0.80343E-03 30528   0.176E-01    0.227E-01
DAV:   8    -0.626848803229E+03    0.13035E-03   -0.13647E-03 30372   0.860E-02    0.150E-01
DAV:   9    -0.626848688092E+03    0.11514E-03   -0.18754E-04 15828   0.412E-02    0.103E-01
DAV:  10    -0.626848599138E+03    0.88954E-04   -0.57133E-04 23832   0.460E-02
  15 F= -.62684860E+03 E0= -.62684860E+03  d E =-.516672E-02  mag=    19.9996
       N       E                     dE             d eps       ncg     rms          rms(c)
DAV:   1    -0.626886257588E+03   -0.37569E-01   -0.54394E+00 21504   0.427E+00    0.135E+00
DAV:   2    -0.626905184723E+03   -0.18927E-01   -0.38804E-01 28896   0.154E+00    0.196E+00
DAV:   3    -0.626899772027E+03    0.54127E-02   -0.39794E-02 26688   0.440E-01    0.154E+00
DAV:   4    -0.626893287944E+03    0.64841E-02   -0.32590E-02 29100   0.366E-01    0.115E+00
DAV:   5    -0.626893381446E+03   -0.93502E-04   -0.23990E-02 28500   0.353E-01    0.588E-01
DAV:   6    -0.626891732082E+03    0.16494E-02   -0.12753E-02 31992   0.280E-01    0.383E-01
DAV:   7    -0.626890742459E+03    0.98962E-03   -0.83059E-03 26472   0.169E-01    0.149E-01
DAV:   8    -0.626890767089E+03   -0.24630E-04   -0.12226E-03 27900   0.827E-02    0.114E-01
DAV:   9    -0.626890799236E+03   -0.32146E-04   -0.22498E-04 15876   0.406E-02
  16 F= -.62689080E+03 E0= -.62689080E+03  d E =-.422001E-01  mag=    19.9997
       N       E                     dE             d eps       ncg     rms          rms(c)
DAV:   1    -0.626900832818E+03   -0.10066E-01   -0.60204E+00 21504   0.485E+00    0.542E-01
DAV:   2    -0.626914531444E+03   -0.13699E-01   -0.17226E-01 27432   0.947E-01    0.466E-01
DAV:   3    -0.626914461114E+03    0.70330E-04   -0.10572E-02 31224   0.242E-01    0.349E-01
DAV:   4    -0.626913943024E+03    0.51809E-03   -0.15419E-03 31452   0.998E-02    0.225E-01
DAV:   5    -0.626913488590E+03    0.45443E-03   -0.11706E-03 29904   0.115E-01    0.115E-01
DAV:   6    -0.626913512234E+03   -0.23644E-04   -0.14248E-03 29580   0.967E-02    0.602E-02
DAV:   7    -0.626913504210E+03    0.80239E-05   -0.39842E-04 20268   0.449E-02
  17 F= -.62691350E+03 E0= -.62691350E+03  d E =-.227050E-01  mag=    19.9998
       N       E                     dE             d eps       ncg     rms          rms(c)
DAV:   1    -0.626908606267E+03    0.49060E-02   -0.25409E+00 21504   0.294E+00    0.997E-01
DAV:   2    -0.626915292736E+03   -0.66865E-02   -0.19400E-01 29052   0.112E+00    0.145E+00
DAV:   3    -0.626912814905E+03    0.24778E-02   -0.22272E-02 26520   0.310E-01    0.119E+00
DAV:   4    -0.626909548171E+03    0.32667E-02   -0.28898E-02 29916   0.342E-01    0.900E-01
DAV:   5    -0.626909275296E+03    0.27287E-03   -0.12852E-02 29016   0.277E-01    0.529E-01
DAV:   6    -0.626908378199E+03    0.89710E-03   -0.55612E-03 31560   0.179E-01    0.378E-01
DAV:   7    -0.626907588867E+03    0.78933E-03   -0.31999E-03 29280   0.111E-01    0.213E-01
DAV:   8    -0.626907340703E+03    0.24816E-03   -0.10670E-03 28272   0.824E-02    0.111E-01
DAV:   9    -0.626907274860E+03    0.65843E-04   -0.16216E-04 15240   0.338E-02
  18 F= -.62690727E+03 E0= -.62690727E+03  d E =0.622935E-02  mag=    19.9998
       N       E                     dE             d eps       ncg     rms          rms(c)
DAV:   1    -0.626928453601E+03   -0.21113E-01   -0.39259E+00 21504   0.381E+00    0.102E+00
DAV:   2    -0.626940012172E+03   -0.11559E-01   -0.21257E-01 27792   0.118E+00    0.135E+00
DAV:   3    -0.626936865171E+03    0.31470E-02   -0.21806E-02 26844   0.355E-01    0.950E-01
DAV:   4    -0.626934563289E+03    0.23019E-02   -0.15492E-02 29424   0.264E-01    0.655E-01
DAV:   5    -0.626934050576E+03    0.51271E-03   -0.44400E-03 28644   0.213E-01    0.305E-01
DAV:   6    -0.626933859811E+03    0.19076E-03   -0.43304E-03 31560   0.158E-01    0.153E-01
DAV:   7    -0.626933749408E+03    0.11040E-03   -0.13790E-03 27480   0.739E-02    0.778E-02
DAV:   8    -0.626933722071E+03    0.27337E-04   -0.18378E-04 15672   0.417E-02
  19 F= -.62693372E+03 E0= -.62693372E+03  d E =-.264472E-01  mag=    19.9999
       N       E                     dE             d eps       ncg     rms          rms(c)
DAV:   1    -0.626941410039E+03   -0.76606E-02   -0.28978E+00 21504   0.336E+00    0.347E-01
DAV:   2    -0.626948623351E+03   -0.72133E-02   -0.80037E-02 26412   0.607E-01    0.247E-01
DAV:   3    -0.626948588613E+03    0.34738E-04   -0.34002E-03 31248   0.131E-01    0.177E-01
DAV:   4    -0.626948410770E+03    0.17784E-03   -0.37390E-04 20592   0.600E-02    0.121E-01
DAV:   5    -0.626948297173E+03    0.11360E-03   -0.80983E-04 25416   0.780E-02    0.624E-02
DAV:   6    -0.626948294355E+03    0.28180E-05   -0.38723E-04 20676   0.522E-02
  20 F= -.62694829E+03 E0= -.62694829E+03  d E =-.145723E-01  mag=    19.9999
       N       E                     dE             d eps       ncg     rms          rms(c)
DAV:   1    -0.626948797929E+03   -0.50076E-03   -0.85050E+00 21504   0.571E+00    0.107E+00
DAV:   2    -0.626968163649E+03   -0.19366E-01   -0.31282E-01 29244   0.135E+00    0.127E+00
DAV:   3    -0.626964689561E+03    0.34741E-02   -0.31869E-02 28692   0.406E-01    0.789E-01
DAV:   4    -0.626963151937E+03    0.15376E-02   -0.16153E-02 31752   0.296E-01    0.598E-01
DAV:   5    -0.626962377961E+03    0.77398E-03   -0.37906E-03 28944   0.177E-01    0.283E-01
DAV:   6    -0.626962160783E+03    0.21718E-03   -0.24673E-03 31644   0.112E-01    0.133E-01
DAV:   7    -0.626962140603E+03    0.20180E-04   -0.58996E-04 24360   0.647E-02
  21 F= -.62696214E+03 E0= -.62696214E+03  d E =-.138462E-01  mag=    19.9999
       N       E                     dE             d eps       ncg     rms          rms(c)
DAV:   1    -0.626977839404E+03   -0.15679E-01   -0.30147E+00 21504   0.340E+00    0.712E-01
DAV:   2    -0.626985281671E+03   -0.74423E-02   -0.14379E-01 28008   0.101E+00    0.102E+00
DAV:   3    -0.626983738791E+03    0.15429E-02   -0.15029E-02 26832   0.280E-01    0.741E-01
DAV:   4    -0.626982184111E+03    0.15547E-02   -0.11287E-02 30936   0.250E-01    0.565E-01
DAV:   5    -0.626981961178E+03    0.22293E-03   -0.37243E-03 29088   0.184E-01    0.319E-01
DAV:   6    -0.626981682229E+03    0.27895E-03   -0.26905E-03 31224   0.118E-01    0.193E-01
DAV:   7    -0.626981523486E+03    0.15874E-03   -0.12097E-03 27060   0.789E-02    0.109E-01
DAV:   8    -0.626981488804E+03    0.34682E-04   -0.15951E-04 15468   0.521E-02
  22 F= -.62698149E+03 E0= -.62698149E+03  d E =-.193482E-01  mag=    19.9999
       N       E                     dE             d eps       ncg     rms          rms(c)
DAV:   1    -0.626984711305E+03   -0.31878E-02   -0.24499E+00 21504   0.307E+00    0.402E-01
DAV:   2    -0.626991368577E+03   -0.66573E-02   -0.74939E-02 27828   0.641E-01    0.430E-01
DAV:   3    -0.626991280988E+03    0.87589E-04   -0.44266E-03 30012   0.171E-01    0.290E-01
DAV:   4    -0.626991045131E+03    0.23586E-03   -0.73279E-04 26796   0.666E-02    0.211E-01
DAV:   5    -0.626990883780E+03    0.16135E-03   -0.81034E-04 26436   0.878E-02    0.103E-01
DAV:   6    -0.626990892364E+03   -0.85845E-05   -0.74262E-04 26484   0.688E-02
  23 F= -.62699089E+03 E0= -.62699089E+03  d E =-.940356E-02  mag=    20.0000
       N       E                     dE             d eps       ncg     rms          rms(c)
DAV:   1    -0.626994335231E+03   -0.34515E-02   -0.39503E-01 21648   0.121E+00    0.284E-01
DAV:   2    -0.626995478806E+03   -0.11436E-02   -0.13914E-02 29292   0.294E-01    0.271E-01
DAV:   3    -0.626995465381E+03    0.13425E-04   -0.16574E-03 29280   0.108E-01    0.172E-01
DAV:   4    -0.626995400900E+03    0.64481E-04   -0.27969E-04 18996   0.406E-02
  24 F= -.62699540E+03 E0= -.62699540E+03  d E =-.450854E-02  mag=    20.0000
       N       E                     dE             d eps       ncg     rms          rms(c)
DAV:   1    -0.626886038841E+03    0.10943E+00   -0.27417E+01 21504   0.102E+01    0.126E+00
DAV:   2    -0.626957709574E+03   -0.71671E-01   -0.73603E-01 24336   0.177E+00    0.674E-01
DAV:   3    -0.626958768009E+03   -0.10584E-02   -0.28830E-02 31188   0.365E-01    0.399E-01
DAV:   4    -0.626957056883E+03    0.17111E-02   -0.58636E-03 31560   0.201E-01    0.257E-01
DAV:   5    -0.626956282060E+03    0.77482E-03   -0.22038E-03 29688   0.149E-01    0.116E-01
DAV:   6    -0.626956365673E+03   -0.83613E-04   -0.17899E-03 30204   0.918E-02    0.725E-02
DAV:   7    -0.626956341169E+03    0.24504E-04   -0.26538E-04 18360   0.433E-02
  25 F= -.62695634E+03 E0= -.62695634E+03  d E =0.390597E-01  mag=    20.0000
       N       E                     dE             d eps       ncg     rms          rms(c)
DAV:   1    -0.626951619582E+03    0.47461E-02   -0.12746E+01 21504   0.699E+00    0.113E+00
DAV:   2    -0.626983271267E+03   -0.31652E-01   -0.34239E-01 24636   0.125E+00    0.648E-01
DAV:   3    -0.626984086697E+03   -0.81543E-03   -0.19812E-02 31272   0.356E-01    0.382E-01
DAV:   4    -0.626983187288E+03    0.89941E-03   -0.39952E-03 31092   0.150E-01    0.233E-01
DAV:   5    -0.626982682938E+03    0.50435E-03   -0.14312E-03 30708   0.118E-01    0.113E-01
DAV:   6    -0.626982697873E+03   -0.14934E-04   -0.12113E-03 30360   0.805E-02    0.648E-02
DAV:   7    -0.626982689130E+03    0.87428E-05   -0.17623E-04 15600   0.385E-02
  26 F= -.62698269E+03 E0= -.62698269E+03  d E =-.263480E-01  mag=    20.0000
       N       E                     dE             d eps       ncg     rms          rms(c)
DAV:   1    -0.626984591837E+03   -0.18940E-02   -0.32161E-01 21528   0.109E+00    0.512E-01
DAV:   2    -0.626984217284E+03    0.37455E-03   -0.22879E-02 31608   0.413E-01    0.430E-01
DAV:   3    -0.626983840728E+03    0.37656E-03   -0.40186E-03 30996   0.179E-01    0.225E-01
DAV:   4    -0.626983762168E+03    0.78560E-04   -0.74852E-04 25968   0.644E-02
  27 F= -.62698376E+03 E0= -.62698376E+03  d E =-.107304E-02  mag=    20.0000
       N       E                     dE             d eps       ncg     rms          rms(c)
DAV:   1    -0.626985104073E+03   -0.12633E-02   -0.54534E-02 21672   0.455E-01    0.870E-02
DAV:   2    -0.626985251639E+03   -0.14757E-03   -0.21727E-03 27804   0.109E-01    0.926E-02
DAV:   3    -0.626985223851E+03    0.27788E-04   -0.12000E-04 15540   0.332E-02
  28 F= -.62698522E+03 E0= -.62698522E+03  d E =-.146168E-02  mag=    20.0000
       N       E                     dE             d eps       ncg     rms          rms(c)
DAV:   1    -0.626985222022E+03    0.29617E-04   -0.94493E-05 12588   0.248E-02    0.330E-02
DAV:   2    -0.626985223384E+03   -0.13624E-05   -0.37115E-05 11904   0.173E-02
  29 F= -.62698522E+03 E0= -.62698522E+03  d E =0.466891E-06  mag=    20.0000
       N       E                     dE             d eps       ncg     rms          rms(c)
DAV:   1    -0.626986578890E+03   -0.13569E-02   -0.17959E-01 21600   0.828E-01    0.154E-01
DAV:   2    -0.626986840707E+03   -0.26182E-03   -0.72993E-03 30528   0.274E-01    0.224E-01
DAV:   3    -0.626986839021E+03    0.16855E-05   -0.13313E-03 28668   0.795E-02    0.147E-01
DAV:   4    -0.626986774062E+03    0.64959E-04   -0.11639E-04 13896   0.295E-02
  30 F= -.62698677E+03 E0= -.62698677E+03  d E =-.155068E-02  mag=    20.0000
       N       E                     dE             d eps       ncg     rms          rms(c)
DAV:   1    -0.626990735121E+03   -0.38961E-02   -0.22365E+00 21504   0.291E+00    0.347E-01
DAV:   2    -0.626996423056E+03   -0.56879E-02   -0.59870E-02 24960   0.512E-01    0.221E-01
DAV:   3    -0.626996511681E+03   -0.88625E-04   -0.31140E-03 31140   0.119E-01    0.154E-01
DAV:   4    -0.626996373204E+03    0.13848E-03   -0.35392E-04 20304   0.536E-02    0.103E-01
DAV:   5    -0.626996287241E+03    0.85963E-04   -0.42187E-04 20244   0.705E-02
  31 F= -.62699629E+03 E0= -.62699629E+03  d E =-.951318E-02  mag=    20.0000
       N       E                     dE             d eps       ncg     rms          rms(c)
DAV:   1    -0.626995681943E+03    0.69126E-03   -0.28656E-01 21504   0.104E+00    0.204E-01
DAV:   2    -0.626996229593E+03   -0.54765E-03   -0.11780E-02 28992   0.338E-01    0.281E-01
DAV:   3    -0.626996227674E+03    0.19186E-05   -0.20396E-03 28956   0.993E-02    0.179E-01
DAV:   4    -0.626996136610E+03    0.91064E-04   -0.22993E-04 17952   0.372E-02
  32 F= -.62699614E+03 E0= -.62699614E+03  d E =0.150631E-03  mag=    20.0000
       N       E                     dE             d eps       ncg     rms          rms(c)
DAV:   1    -0.626998625224E+03   -0.23976E-02   -0.29185E+00 21504   0.333E+00    0.392E-01
DAV:   2    -0.627006157321E+03   -0.75321E-02   -0.82025E-02 27144   0.634E-01    0.377E-01
DAV:   3    -0.627006052102E+03    0.10522E-03   -0.38916E-03 30072   0.152E-01    0.260E-01
DAV:   4    -0.627005845184E+03    0.20692E-03   -0.56985E-04 24300   0.630E-02    0.190E-01
DAV:   5    -0.627005717528E+03    0.12766E-03   -0.78086E-04 25224   0.783E-02    0.877E-02
DAV:   6    -0.627005705652E+03    0.11877E-04   -0.43207E-04 22920   0.588E-02
  33 F= -.62700571E+03 E0= -.62700571E+03  d E =-.956904E-02  mag=    20.0000
       N       E                     dE             d eps       ncg     rms          rms(c)
DAV:   1    -0.627009591940E+03   -0.38744E-02   -0.17079E+00 21504   0.251E+00    0.475E-01
DAV:   2    -0.627014364188E+03   -0.47722E-02   -0.57900E-02 29928   0.594E-01    0.520E-01
DAV:   3    -0.627014186770E+03    0.17742E-03   -0.49589E-03 29892   0.188E-01    0.325E-01
DAV:   4    -0.627013975271E+03    0.21150E-03   -0.99214E-04 27048   0.635E-02    0.225E-01
DAV:   5    -0.627013830052E+03    0.14522E-03   -0.70370E-04 25428   0.716E-02    0.105E-01
DAV:   6    -0.627013800717E+03    0.29336E-04   -0.51987E-04 24276   0.671E-02
  34 F= -.62701380E+03 E0= -.62701380E+03  d E =-.809506E-02  mag=    20.0000
       N       E                     dE             d eps       ncg     rms          rms(c)
DAV:   1    -0.627015250505E+03   -0.14205E-02   -0.40763E-01 21504   0.128E+00    0.514E-01
DAV:   2    -0.627014203847E+03    0.10467E-02   -0.36151E-02 31044   0.590E-01    0.634E-01
DAV:   3    -0.627013249327E+03    0.95452E-03   -0.68549E-03 29160   0.190E-01    0.383E-01
DAV:   4    -0.627012829344E+03    0.41998E-03   -0.38068E-03 31608   0.139E-01    0.298E-01
DAV:   5    -0.627012686570E+03    0.14277E-03   -0.62657E-04 26040   0.869E-02    0.125E-01
DAV:   6    -0.627012632895E+03    0.53675E-04   -0.70572E-04 27060   0.637E-02
  35 F= -.62701263E+03 E0= -.62701263E+03  d E =0.116782E-02  mag=    20.0000
       N       E                     dE             d eps       ncg     rms          rms(c)
DAV:   1    -0.627013681216E+03   -0.99465E-03   -0.40428E+00 21504   0.390E+00    0.700E-01
DAV:   2    -0.627023863355E+03   -0.10182E-01   -0.17084E-01 30000   0.112E+00    0.102E+00
DAV:   3    -0.627023228223E+03    0.63513E-03   -0.20329E-02 27732   0.328E-01    0.740E-01
DAV:   4    -0.627021744734E+03    0.14835E-02   -0.37562E-03 30780   0.135E-01    0.612E-01
DAV:   5    -0.627021025677E+03    0.71906E-03   -0.72446E-03 30876   0.216E-01    0.354E-01
DAV:   6    -0.627020770634E+03    0.25504E-03   -0.56526E-03 30972   0.199E-01    0.193E-01
DAV:   7    -0.627020569873E+03    0.20076E-03   -0.33579E-03 29256   0.132E-01    0.148E-01
DAV:   8    -0.627020577557E+03   -0.76838E-05   -0.35342E-04 20484   0.622E-02
  36 F= -.62702058E+03 E0= -.62702058E+03  d E =-.794466E-02  mag=    20.0000
       N       E                     dE             d eps       ncg     rms          rms(c)
DAV:   1    -0.627026737616E+03   -0.61677E-02   -0.11937E+00 21504   0.208E+00    0.520E-01
DAV:   2    -0.627030227780E+03   -0.34902E-02   -0.54617E-02 29904   0.587E-01    0.635E-01
DAV:   3    -0.627029716346E+03    0.51143E-03   -0.53635E-03 28476   0.191E-01    0.434E-01
DAV:   4    -0.627029323329E+03    0.39302E-03   -0.16574E-03 28044   0.795E-02    0.323E-01
DAV:   5    -0.627029140964E+03    0.18237E-03   -0.13021E-03 26364   0.857E-02    0.140E-01
DAV:   6    -0.627029070143E+03    0.70821E-04   -0.92454E-04 29124   0.859E-02
  37 F= -.62702907E+03 E0= -.62702907E+03  d E =-.849259E-02  mag=    20.0000
       N       E                     dE             d eps       ncg     rms          rms(c)
DAV:   1    -0.627030768105E+03   -0.16271E-02   -0.60840E-02 21600   0.479E-01    0.120E-01
DAV:   2    -0.627030846315E+03   -0.78210E-04   -0.29026E-03 27876   0.136E-01    0.146E-01
DAV:   3    -0.627030806048E+03    0.40267E-04   -0.26029E-04 18024   0.441E-02
  38 F= -.62703081E+03 E0= -.62703081E+03  d E =-.173591E-02  mag=    20.0000
       N       E                     dE             d eps       ncg     rms          rms(c)
DAV:   1    -0.627030435294E+03    0.41102E-03   -0.55501E+00 21504   0.456E+00    0.532E-01
DAV:   2    -0.627044600859E+03   -0.14166E-01   -0.14805E-01 25992   0.806E-01    0.333E-01
DAV:   3    -0.627044530112E+03    0.70747E-04   -0.55372E-03 30744   0.161E-01    0.196E-01
DAV:   4    -0.627044152540E+03    0.37757E-03   -0.80607E-04 27996   0.922E-02    0.138E-01
DAV:   5    -0.627043993341E+03    0.15920E-03   -0.83860E-04 25788   0.816E-02    0.536E-02
DAV:   6    -0.627044007619E+03   -0.14279E-04   -0.37969E-04 20556   0.464E-02
  39 F= -.62704401E+03 E0= -.62704401E+03  d E =-.132016E-01  mag=    20.0000
       N       E                     dE             d eps       ncg     rms          rms(c)
DAV:   1    -0.627044142462E+03   -0.14912E-03   -0.33347E+00 21504   0.350E+00    0.686E-01
DAV:   2    -0.627052101706E+03   -0.79592E-02   -0.12171E-01 29712   0.904E-01    0.840E-01
DAV:   3    -0.627051160362E+03    0.94134E-03   -0.15809E-02 29400   0.278E-01    0.538E-01
DAV:   4    -0.627050495654E+03    0.66471E-03   -0.48309E-03 31140   0.155E-01    0.434E-01
DAV:   5    -0.627050294551E+03    0.20110E-03   -0.15972E-03 27744   0.111E-01    0.201E-01
DAV:   6    -0.627050129279E+03    0.16527E-03   -0.15231E-03 31248   0.100E-01    0.880E-02
DAV:   7    -0.627050105912E+03    0.23367E-04   -0.59427E-04 22416   0.627E-02
  40 F= -.62705011E+03 E0= -.62705011E+03  d E =-.609829E-02  mag=    20.0000
       N       E                     dE             d eps       ncg     rms          rms(c)
DAV:   1    -0.627056157837E+03   -0.60286E-02   -0.39319E-01 21504   0.116E+00    0.378E-01
DAV:   2    -0.627056769347E+03   -0.61151E-03   -0.29321E-02 28968   0.498E-01    0.571E-01
DAV:   3    -0.627056468595E+03    0.30075E-03   -0.42169E-03 26616   0.137E-01    0.460E-01
DAV:   4    -0.627055854521E+03    0.61407E-03   -0.20170E-03 27372   0.946E-02    0.380E-01
DAV:   5    -0.627055893334E+03   -0.38813E-04   -0.30789E-03 28104   0.126E-01    0.226E-01
DAV:   6    -0.627055771154E+03    0.12218E-03   -0.14531E-03 30240   0.942E-02    0.173E-01
DAV:   7    -0.627055588626E+03    0.18253E-03   -0.95042E-04 23292   0.655E-02    0.113E-01
DAV:   8    -0.627055576561E+03    0.12065E-04   -0.11745E-04 12972   0.395E-02
  41 F= -.62705558E+03 E0= -.62705558E+03  d E =-.547065E-02  mag=    20.0000
       N       E                     dE             d eps       ncg     rms          rms(c)
DAV:   1    -0.627058469936E+03   -0.28813E-02   -0.17474E+00 21504   0.254E+00    0.313E-01
DAV:   2    -0.627062978524E+03   -0.45086E-02   -0.48316E-02 26328   0.462E-01    0.230E-01
DAV:   3    -0.627062926566E+03    0.51958E-04   -0.20335E-03 29976   0.105E-01    0.117E-01
DAV:   4    -0.627062796434E+03    0.13013E-03   -0.32549E-04 19944   0.602E-02    0.940E-02
DAV:   5    -0.627062781628E+03    0.14806E-04   -0.41094E-04 19536   0.480E-02
  42 F= -.62706278E+03 E0= -.62706278E+03  d E =-.720507E-02  mag=    20.0000
       N       E                     dE             d eps       ncg     rms          rms(c)
DAV:   1    -0.627063070654E+03   -0.27422E-03   -0.87436E-03 22200   0.176E-01    0.667E-02
DAV:   2    -0.627063060391E+03    0.10263E-04   -0.68618E-04 24468   0.825E-02
  43 F= -.62706306E+03 E0= -.62706306E+03  d E =-.278763E-03  mag=    20.0000
       N       E                     dE             d eps       ncg     rms          rms(c)
DAV:   1    -0.627065683007E+03   -0.26124E-02   -0.18264E+00 21504   0.260E+00    0.412E-01
DAV:   2    -0.627070025962E+03   -0.43430E-02   -0.52896E-02 25512   0.489E-01    0.276E-01
DAV:   3    -0.627070034926E+03   -0.89644E-05   -0.29667E-03 30336   0.129E-01    0.149E-01
DAV:   4    -0.627069856032E+03    0.17889E-03   -0.84890E-04 26844   0.761E-02    0.100E-01
DAV:   5    -0.627069807048E+03    0.48983E-04   -0.26478E-04 17292   0.516E-02
  44 F= -.62706981E+03 E0= -.62706981E+03  d E =-.674666E-02  mag=    20.0000
       N       E                     dE             d eps       ncg     rms          rms(c)
DAV:   1    -0.627070732505E+03   -0.87647E-03   -0.16774E-02 22128   0.246E-01    0.634E-02
DAV:   2    -0.627070765046E+03   -0.32541E-04   -0.73137E-04 24636   0.738E-02
  45 F= -.62707077E+03 E0= -.62707077E+03  d E =-.957998E-03  mag=    20.0000
       N       E                     dE             d eps       ncg     rms          rms(c)
DAV:   1    -0.627074639520E+03   -0.39070E-02   -0.77012E-01 21504   0.169E+00    0.335E-01
DAV:   2    -0.627075853040E+03   -0.12135E-02   -0.24676E-02 28212   0.345E-01    0.230E-01
DAV:   3    -0.627075688956E+03    0.16408E-03   -0.18136E-03 29484   0.117E-01    0.106E-01
DAV:   4    -0.627075607061E+03    0.81895E-04   -0.35516E-04 20076   0.495E-02
  46 F= -.62707561E+03 E0= -.62707561E+03  d E =-.484202E-02  mag=    20.0000
       N       E                     dE             d eps       ncg     rms          rms(c)
DAV:   1    -0.627076150046E+03   -0.46109E-03   -0.20940E-01 21504   0.870E-01    0.221E-01
DAV:   2    -0.627076740475E+03   -0.59043E-03   -0.10514E-02 28908   0.252E-01    0.296E-01
DAV:   3    -0.627076630782E+03    0.10969E-03   -0.10733E-03 25548   0.713E-02    0.232E-01
DAV:   4    -0.627076497827E+03    0.13296E-03   -0.10586E-03 23424   0.653E-02    0.168E-01
DAV:   5    -0.627076482456E+03    0.15371E-04   -0.36269E-04 21912   0.509E-02
  47 F= -.62707648E+03 E0= -.62707648E+03  d E =-.875395E-03  mag=    20.0000
       N       E                     dE             d eps       ncg     rms          rms(c)
DAV:   1    -0.627079250979E+03   -0.27532E-02   -0.24701E-01 21504   0.947E-01    0.224E-01
DAV:   2    -0.627079736018E+03   -0.48504E-03   -0.95966E-03 26664   0.237E-01    0.246E-01
DAV:   3    -0.627079644379E+03    0.91639E-04   -0.86973E-04 25992   0.675E-02
  48 F= -.62707964E+03 E0= -.62707964E+03  d E =-.316192E-02  mag=    20.0000
       N       E                     dE             d eps       ncg     rms          rms(c)
DAV:   1    -0.627083624679E+03   -0.38887E-02   -0.14942E+00 21504   0.236E+00    0.524E-01
DAV:   2    -0.627085077069E+03   -0.14524E-02   -0.48154E-02 28548   0.491E-01    0.326E-01
DAV:   3    -0.627084887854E+03    0.18921E-03   -0.45585E-03 29652   0.190E-01    0.173E-01
DAV:   4    -0.627084708790E+03    0.17906E-03   -0.10058E-03 28188   0.744E-02    0.894E-02
DAV:   5    -0.627084655614E+03    0.53176E-04   -0.24968E-04 17880   0.564E-02
  49 F= -.62708466E+03 E0= -.62708466E+03  d E =-.501124E-02  mag=    20.0000
       N       E                     dE             d eps       ncg     rms          rms(c)
DAV:   1    -0.627089588812E+03   -0.48800E-02   -0.33911E-01 21552   0.115E+00    0.343E-01
DAV:   2    -0.627089022944E+03    0.56587E-03   -0.14509E-02 30480   0.283E-01    0.239E-01
DAV:   3    -0.627088827982E+03    0.19496E-03   -0.16787E-03 29784   0.118E-01    0.116E-01
DAV:   4    -0.627088757335E+03    0.70647E-04   -0.56077E-04 23280   0.534E-02
  50 F= -.62708876E+03 E0= -.62708876E+03  d E =-.410172E-02  mag=    20.0000
       N       E                     dE             d eps       ncg     rms          rms(c)
DAV:   1    -0.627091594651E+03   -0.27667E-02   -0.12840E+00 21504   0.214E+00    0.313E-01
DAV:   2    -0.627094712464E+03   -0.31178E-02   -0.35603E-02 27252   0.402E-01    0.260E-01
DAV:   3    -0.627094639233E+03    0.73231E-04   -0.25321E-03 29832   0.110E-01    0.140E-01
DAV:   4    -0.627094511429E+03    0.12780E-03   -0.71141E-04 24336   0.684E-02    0.999E-02
DAV:   5    -0.627094477391E+03    0.34038E-04   -0.29172E-04 18384   0.520E-02
  51 F= -.62709448E+03 E0= -.62709448E+03  d E =-.572006E-02  mag=    20.0000
       N       E                     dE             d eps       ncg     rms          rms(c)
DAV:   1    -0.627096745905E+03   -0.22345E-02   -0.25070E-01 21504   0.965E-01    0.185E-01
DAV:   2    -0.627097438778E+03   -0.69287E-03   -0.10421E-02 27936   0.256E-01    0.244E-01
DAV:   3    -0.627097339944E+03    0.98834E-04   -0.10203E-03 25848   0.752E-02    0.163E-01
DAV:   4    -0.627097262395E+03    0.77549E-04   -0.64359E-04 22680   0.613E-02
  52 F= -.62709726E+03 E0= -.62709726E+03  d E =-.278500E-02  mag=    20.0000
       N       E                     dE             d eps       ncg     rms          rms(c)
DAV:   1    -0.627100079189E+03   -0.27392E-02   -0.12908E+00 21504   0.215E+00    0.273E-01
DAV:   2    -0.627103382625E+03   -0.33034E-02   -0.33392E-02 25416   0.367E-01    0.141E-01
DAV:   3    -0.627103461415E+03   -0.78789E-04   -0.14847E-03 29556   0.793E-02    0.860E-02
DAV:   4    -0.627103391647E+03    0.69768E-04   -0.13073E-04 14604   0.330E-02
  53 F= -.62710339E+03 E0= -.62710339E+03  d E =-.612925E-02  mag=    20.0000
       N       E                     dE             d eps       ncg     rms          rms(c)
DAV:   1    -0.627080987639E+03    0.22474E-01   -0.42525E+00 21504   0.391E+00    0.450E-01
DAV:   2    -0.627092348546E+03   -0.11361E-01   -0.11445E-01 25320   0.687E-01    0.289E-01
DAV:   3    -0.627092424926E+03   -0.76380E-04   -0.43006E-03 30252   0.135E-01    0.149E-01
DAV:   4    -0.627092147056E+03    0.27787E-03   -0.57939E-04 25092   0.790E-02    0.109E-01
DAV:   5    -0.627092067233E+03    0.79824E-04   -0.65060E-04 24084   0.660E-02
  54 F= -.62709207E+03 E0= -.62709207E+03  d E =0.113244E-01  mag=    20.0000
       N       E                     dE             d eps       ncg     rms          rms(c)
DAV:   1    -0.627092035600E+03    0.11146E-03   -0.23225E-03 22248   0.954E-02    0.513E-02
DAV:   2    -0.627092013612E+03    0.21988E-04   -0.17881E-04 15180   0.516E-02
  55 F= -.62709201E+03 E0= -.62709201E+03  d E =0.536209E-04  mag=    20.0000
       N       E                     dE             d eps       ncg     rms          rms(c)
DAV:   1    -0.627089219544E+03    0.28161E-02   -0.72243E-01 21504   0.171E+00    0.539E-01
DAV:   2    -0.627087816620E+03    0.14029E-02   -0.31957E-02 29376   0.426E-01    0.327E-01
DAV:   3    -0.627087507892E+03    0.30873E-03   -0.38680E-03 29664   0.194E-01    0.160E-01
DAV:   4    -0.627087381508E+03    0.12638E-03   -0.16077E-03 30708   0.904E-02    0.793E-02
DAV:   5    -0.627087342141E+03    0.39367E-04   -0.27738E-04 18576   0.516E-02
  56 F= -.62708734E+03 E0= -.62708734E+03  d E =0.467147E-02  mag=    20.0000
       N       E                     dE             d eps       ncg     rms          rms(c)
DAV:   1    -0.627092391221E+03   -0.50097E-02   -0.12737E+00 21504   0.216E+00    0.372E-01
DAV:   2    -0.627094762614E+03   -0.23714E-02   -0.37024E-02 25932   0.400E-01    0.204E-01
DAV:   3    -0.627094738467E+03    0.24147E-04   -0.21741E-03 29736   0.125E-01    0.986E-02
DAV:   4    -0.627094634206E+03    0.10426E-03   -0.47476E-04 22632   0.548E-02    0.512E-02
DAV:   5    -0.627094600416E+03    0.33790E-04   -0.12323E-04 14604   0.406E-02
  57 F= -.62709460E+03 E0= -.62709460E+03  d E =-.725828E-02  mag=    20.0000
       N       E                     dE             d eps       ncg     rms          rms(c)
DAV:   1    -0.627093413569E+03    0.12206E-02   -0.35135E+00 21504   0.353E+00    0.598E-01
DAV:   2    -0.627104421324E+03   -0.11008E-01   -0.91260E-02 25152   0.614E-01    0.322E-01
DAV:   3    -0.627105096008E+03   -0.67468E-03   -0.41819E-03 30672   0.131E-01    0.158E-01
DAV:   4    -0.627104882913E+03    0.21310E-03   -0.48602E-04 23388   0.586E-02    0.974E-02
DAV:   5    -0.627104762202E+03    0.12071E-03   -0.43681E-04 22428   0.631E-02    0.412E-02
DAV:   6    -0.627104774403E+03   -0.12202E-04   -0.20484E-04 15756   0.341E-02
  58 F= -.62710477E+03 E0= -.62710477E+03  d E =-.101740E-01  mag=    20.0000
       N       E                     dE             d eps       ncg     rms          rms(c)
DAV:   1    -0.627106429083E+03   -0.16669E-02   -0.15972E+00 21504   0.245E+00    0.315E-01
DAV:   2    -0.627110640610E+03   -0.42115E-02   -0.49470E-02 28068   0.539E-01    0.364E-01
DAV:   3    -0.627110628034E+03    0.12575E-04   -0.40093E-03 30192   0.152E-01    0.245E-01
DAV:   4    -0.627110441324E+03    0.18671E-03   -0.60722E-04 24564   0.595E-02    0.177E-01
DAV:   5    -0.627110311065E+03    0.13026E-03   -0.48232E-04 24132   0.786E-02    0.932E-02
DAV:   6    -0.627110327039E+03   -0.15974E-04   -0.70242E-04 26796   0.651E-02
  59 F= -.62711033E+03 E0= -.62711033E+03  d E =-.555264E-02  mag=    20.0000
       N       E                     dE             d eps       ncg     rms          rms(c)
DAV:   1    -0.627112111968E+03   -0.18009E-02   -0.13337E-01 21600   0.693E-01    0.153E-01
DAV:   2    -0.627112328670E+03   -0.21670E-03   -0.50507E-03 29616   0.209E-01    0.188E-01
DAV:   3    -0.627112322309E+03    0.63613E-05   -0.94671E-04 26412   0.694E-02
  60 F= -.62711232E+03 E0= -.62711232E+03  d E =-.199527E-02  mag=    20.0000
       N       E                     dE             d eps       ncg     rms          rms(c)
DAV:   1    -0.627114989125E+03   -0.26605E-02   -0.17252E+00 21600   0.248E+00    0.320E-01
DAV:   2    -0.627119297164E+03   -0.43080E-02   -0.46145E-02 25932   0.434E-01    0.176E-01
DAV:   3    -0.627119337486E+03   -0.40322E-04   -0.24830E-03 30612   0.102E-01    0.102E-01
DAV:   4    -0.627119223886E+03    0.11360E-03   -0.35588E-04 21312   0.510E-02    0.626E-02
DAV:   5    -0.627119179757E+03    0.44129E-04   -0.21459E-04 15480   0.464E-02
  61 F= -.62711918E+03 E0= -.62711918E+03  d E =-.685745E-02  mag=    20.0000
       N       E                     dE             d eps       ncg     rms          rms(c)
DAV:   1    -0.627121023013E+03   -0.17991E-02   -0.17634E-01 21504   0.795E-01    0.995E-02
DAV:   2    -0.627121464864E+03   -0.44185E-03   -0.45996E-03 25932   0.138E-01    0.588E-02
DAV:   3    -0.627121462811E+03    0.20530E-05   -0.13918E-04 15300   0.286E-02
  62 F= -.62712146E+03 E0= -.62712146E+03  d E =-.228305E-02  mag=    20.0000
       N       E                     dE             d eps       ncg     rms          rms(c)
DAV:   1    -0.627124379403E+03   -0.29145E-02   -0.19240E+00 21504   0.261E+00    0.321E-01
DAV:   2    -0.627129052172E+03   -0.46728E-02   -0.50230E-02 25440   0.449E-01    0.214E-01
DAV:   3    -0.627129028527E+03    0.23645E-04   -0.20097E-03 30708   0.104E-01    0.128E-01
DAV:   4    -0.627128918494E+03    0.11003E-03   -0.17651E-04 15540   0.354E-02    0.764E-02
DAV:   5    -0.627128860074E+03    0.58420E-04   -0.34872E-04 19668   0.455E-02
  63 F= -.62712886E+03 E0= -.62712886E+03  d E =-.739726E-02  mag=    20.0000
       N       E                     dE             d eps       ncg     rms          rms(c)
DAV:   1    -0.627128465869E+03    0.45263E-03   -0.29325E-02 21648   0.340E-01    0.124E-01
DAV:   2    -0.627128481785E+03   -0.15916E-04   -0.20681E-03 29544   0.114E-01    0.132E-01
DAV:   3    -0.627128427989E+03    0.53797E-04   -0.20091E-04 17196   0.446E-02
  64 F= -.62712843E+03 E0= -.62712843E+03  d E =0.432085E-03  mag=    20.0000
       N       E                     dE             d eps       ncg     rms          rms(c)
DAV:   1    -0.627131033324E+03   -0.25515E-02   -0.16033E+00 21600   0.238E+00    0.300E-01
DAV:   2    -0.627135174860E+03   -0.41415E-02   -0.43615E-02 26172   0.422E-01    0.187E-01
DAV:   3    -0.627135220475E+03   -0.45615E-04   -0.20966E-03 30324   0.951E-02    0.101E-01
DAV:   4    -0.627135109318E+03    0.11116E-03   -0.46683E-04 23448   0.589E-02    0.684E-02
DAV:   5    -0.627135077916E+03    0.31402E-04   -0.20194E-04 15840   0.423E-02
  65 F= -.62713508E+03 E0= -.62713508E+03  d E =-.664993E-02  mag=    20.0000
       N       E                     dE             d eps       ncg     rms          rms(c)
DAV:   1    -0.627136485752E+03   -0.13764E-02   -0.74225E-02 21600   0.512E-01    0.764E-02
DAV:   2    -0.627136662037E+03   -0.17628E-03   -0.20350E-03 27420   0.960E-02    0.545E-02
DAV:   3    -0.627136659206E+03    0.28315E-05   -0.77242E-05 13116   0.254E-02
  66 F= -.62713666E+03 E0= -.62713666E+03  d E =-.158129E-02  mag=    20.0000
       N       E                     dE             d eps       ncg     rms          rms(c)
DAV:   1    -0.627139311852E+03   -0.26498E-02   -0.48884E-01 21504   0.131E+00    0.166E-01
DAV:   2    -0.627140492138E+03   -0.11803E-02   -0.12835E-02 25740   0.226E-01    0.107E-01
DAV:   3    -0.627140480921E+03    0.11217E-04   -0.48172E-04 23436   0.522E-02
  67 F= -.62714048E+03 E0= -.62714048E+03  d E =-.382172E-02  mag=    20.0000
       N       E                     dE             d eps       ncg     rms          rms(c)
DAV:   1    -0.627143264373E+03   -0.27722E-02   -0.56232E-01 21504   0.140E+00    0.192E-01
DAV:   2    -0.627144516766E+03   -0.12524E-02   -0.14505E-02 25860   0.242E-01    0.123E-01
DAV:   3    -0.627144482749E+03    0.34017E-04   -0.57842E-04 24840   0.567E-02
  68 F= -.62714448E+03 E0= -.62714448E+03  d E =-.400183E-02  mag=    20.0000
       N       E                     dE             d eps       ncg     rms          rms(c)
DAV:   1    -0.627146038337E+03   -0.15216E-02   -0.10806E-01 21504   0.640E-01    0.166E-01
DAV:   2    -0.627146100694E+03   -0.62357E-04   -0.46510E-03 29856   0.172E-01    0.171E-01
DAV:   3    -0.627146011147E+03    0.89547E-04   -0.47759E-04 22524   0.590E-02
  69 F= -.62714601E+03 E0= -.62714601E+03  d E =-.152840E-02  mag=    20.0000
       N       E                     dE             d eps       ncg     rms          rms(c)
DAV:   1    -0.627147324143E+03   -0.12234E-02   -0.86312E-02 21504   0.563E-01    0.103E-01
DAV:   2    -0.627147577037E+03   -0.25289E-03   -0.37259E-03 29052   0.158E-01    0.136E-01
DAV:   3    -0.627147519336E+03    0.57701E-04   -0.36318E-04 20952   0.484E-02
  70 F= -.62714752E+03 E0= -.62714752E+03  d E =-.150819E-02  mag=    20.0000
       N       E                     dE             d eps       ncg     rms          rms(c)
DAV:   1    -0.627150482126E+03   -0.29051E-02   -0.13126E+00 21504   0.215E+00    0.291E-01
DAV:   2    -0.627153630610E+03   -0.31485E-02   -0.34456E-02 25512   0.373E-01    0.159E-01
DAV:   3    -0.627153680382E+03   -0.49771E-04   -0.16202E-03 30060   0.854E-02    0.970E-02
DAV:   4    -0.627153590655E+03    0.89727E-04   -0.23304E-04 16884   0.424E-02
  71 F= -.62715359E+03 E0= -.62715359E+03  d E =-.607132E-02  mag=    20.0000
       N       E                     dE             d eps       ncg     rms          rms(c)
DAV:   1    -0.627156643826E+03   -0.29634E-02   -0.46455E-01 21504   0.128E+00    0.194E-01
DAV:   2    -0.627157575246E+03   -0.93142E-03   -0.12304E-02 25884   0.224E-01    0.116E-01
DAV:   3    -0.627157552371E+03    0.22875E-04   -0.59009E-04 25644   0.610E-02
  72 F= -.62715755E+03 E0= -.62715755E+03  d E =-.396172E-02  mag=    20.0000
       N       E                     dE             d eps       ncg     rms          rms(c)
DAV:   1    -0.627145648414E+03    0.11927E-01   -0.12765E+01 21600   0.666E+00    0.795E-01
DAV:   2    -0.627177959561E+03   -0.32311E-01   -0.33673E-01 25380   0.113E+00    0.483E-01
DAV:   3    -0.627177997690E+03   -0.38129E-04   -0.12610E-02 31044   0.237E-01    0.290E-01
DAV:   4    -0.627177329760E+03    0.66793E-03   -0.16603E-03 28968   0.970E-02    0.177E-01
DAV:   5    -0.627176979291E+03    0.35047E-03   -0.15767E-03 25224   0.100E-01    0.596E-02
DAV:   6    -0.627177023684E+03   -0.44393E-04   -0.58946E-04 22788   0.532E-02
  73 F= -.62717702E+03 E0= -.62717702E+03  d E =-.194713E-01  mag=    20.0000
       N       E                     dE             d eps       ncg     rms          rms(c)
DAV:   1    -0.627171733326E+03    0.52460E-02   -0.80834E+00 21624   0.529E+00    0.642E-01
DAV:   2    -0.627193250930E+03   -0.21518E-01   -0.21171E-01 25308   0.893E-01    0.348E-01
DAV:   3    -0.627193705041E+03   -0.45411E-03   -0.83635E-03 30948   0.175E-01    0.201E-01
DAV:   4    -0.627193338087E+03    0.36695E-03   -0.10261E-03 28920   0.767E-02    0.124E-01
DAV:   5    -0.627193143518E+03    0.19457E-03   -0.77780E-04 24744   0.755E-02    0.428E-02
DAV:   6    -0.627193169875E+03   -0.26356E-04   -0.30989E-04 17628   0.389E-02
  74 F= -.62719317E+03 E0= -.62719317E+03  d E =-.161462E-01  mag=    20.0000
       N       E                     dE             d eps       ncg     rms          rms(c)
DAV:   1    -0.626905090019E+03    0.28805E+00   -0.87696E+01 21600   0.175E+01    0.204E+00
DAV:   2    -0.627143597913E+03   -0.23851E+00   -0.23436E+00 25188   0.294E+00    0.111E+00
DAV:   3    -0.627147203969E+03   -0.36061E-02   -0.87278E-02 30780   0.537E-01    0.627E-01
DAV:   4    -0.627142675970E+03    0.45280E-02   -0.12409E-02 31008   0.300E-01    0.418E-01
DAV:   5    -0.627141088652E+03    0.15873E-02   -0.59560E-03 28164   0.202E-01    0.188E-01
DAV:   6    -0.627141234358E+03   -0.14571E-03   -0.25846E-03 29928   0.110E-01    0.100E-01
DAV:   7    -0.627141218367E+03    0.15991E-04   -0.46909E-04 21192   0.553E-02
  75 F= -.62714122E+03 E0= -.62714122E+03  d E =0.519515E-01  mag=    20.0000
       N       E                     dE             d eps       ncg     rms          rms(c)
DAV:   1    -0.627124890969E+03    0.16343E-01   -0.13979E+01 21600   0.697E+00    0.820E-01
DAV:   2    -0.627161974822E+03   -0.37084E-01   -0.36121E-01 25080   0.118E+00    0.478E-01
DAV:   3    -0.627162452448E+03   -0.47763E-03   -0.13328E-02 30300   0.218E-01    0.261E-01
DAV:   4    -0.627161620100E+03    0.83235E-03   -0.21481E-03 29796   0.119E-01    0.163E-01
DAV:   5    -0.627161315995E+03    0.30410E-03   -0.15496E-03 25956   0.107E-01    0.528E-02
DAV:   6    -0.627161373843E+03   -0.57849E-04   -0.73905E-04 24852   0.572E-02
  76 F= -.62716137E+03 E0= -.62716137E+03  d E =-.201555E-01  mag=    20.0000
       N       E                     dE             d eps       ncg     rms          rms(c)
DAV:   1    -0.627143823302E+03    0.17493E-01   -0.31435E+00 21600   0.331E+00    0.376E-01
DAV:   2    -0.627152034374E+03   -0.82111E-02   -0.80797E-02 25152   0.562E-01    0.229E-01
DAV:   3    -0.627152133372E+03   -0.98998E-04   -0.30669E-03 30672   0.103E-01    0.123E-01
DAV:   4    -0.627151922480E+03    0.21089E-03   -0.39857E-04 21900   0.603E-02    0.825E-02
DAV:   5    -0.627151878300E+03    0.44180E-04   -0.49472E-04 23316   0.548E-02
  77 F= -.62715188E+03 E0= -.62715188E+03  d E =0.949554E-02  mag=    20.0000
       N       E                     dE             d eps       ncg     rms          rms(c)
DAV:   1    -0.627154876569E+03   -0.29541E-02   -0.10846E+00 21504   0.196E+00    0.223E-01
DAV:   2    -0.627157511693E+03   -0.26351E-02   -0.29001E-02 26436   0.348E-01    0.172E-01
DAV:   3    -0.627157461272E+03    0.50421E-04   -0.13503E-03 29268   0.817E-02    0.916E-02
DAV:   4    -0.627157369452E+03    0.91820E-04   -0.20890E-04 16320   0.414E-02
  78 F= -.62715737E+03 E0= -.62715737E+03  d E =-.549115E-02  mag=    20.0000
       N       E                     dE             d eps       ncg     rms          rms(c)
DAV:   1    -0.627160432085E+03   -0.29708E-02   -0.82188E-01 21504   0.169E+00    0.251E-01
DAV:   2    -0.627162513675E+03   -0.20816E-02   -0.22659E-02 27444   0.329E-01    0.214E-01
DAV:   3    -0.627162525300E+03   -0.11625E-04   -0.16814E-03 30108   0.983E-02    0.106E-01
DAV:   4    -0.627162476787E+03    0.48513E-04   -0.16596E-04 15120   0.351E-02
  79 F= -.62716248E+03 E0= -.62716248E+03  d E =-.510734E-02  mag=    20.0000
       N       E                     dE             d eps       ncg     rms          rms(c)
DAV:   1    -0.627165415690E+03   -0.28904E-02   -0.65681E-01 21600   0.150E+00    0.192E-01
DAV:   2    -0.627167044531E+03   -0.16288E-02   -0.16361E-02 25572   0.249E-01    0.101E-01
DAV:   3    -0.627167084149E+03   -0.39618E-04   -0.73198E-04 26256   0.524E-02
  80 F= -.62716708E+03 E0= -.62716708E+03  d E =-.460736E-02  mag=    20.0000
       N       E                     dE             d eps       ncg     rms          rms(c)
DAV:   1    -0.627087650027E+03    0.79395E-01   -0.44348E+01 21600   0.124E+01    0.154E+00
DAV:   2    -0.627206563672E+03   -0.11891E+00   -0.11960E+00 25524   0.211E+00    0.877E-01
DAV:   3    -0.627207173547E+03   -0.60987E-03   -0.42417E-02 30732   0.418E-01    0.495E-01
DAV:   4    -0.627204675132E+03    0.24984E-02   -0.75212E-03 29208   0.202E-01    0.314E-01
DAV:   5    -0.627203675950E+03    0.99918E-03   -0.47900E-03 25740   0.169E-01    0.116E-01
DAV:   6    -0.627203777970E+03   -0.10202E-03   -0.17262E-03 27624   0.893E-02    0.780E-02
DAV:   7    -0.627203769619E+03    0.83513E-05   -0.33299E-04 18468   0.442E-02
  81 F= -.62720377E+03 E0= -.62720377E+03  d E =-.366855E-01  mag=    20.0000
       N       E                     dE             d eps       ncg     rms          rms(c)
DAV:   1    -0.626941079656E+03    0.26270E+00   -0.11509E+02 21600   0.200E+01    0.246E+00
DAV:   2    -0.627271558415E+03   -0.33048E+00   -0.32564E+00 25788   0.342E+00    0.139E+00
DAV:   3    -0.627275190231E+03   -0.36318E-02   -0.12348E-01 30228   0.689E-01    0.791E-01
DAV:   4    -0.627269364823E+03    0.58254E-02   -0.21116E-02 30048   0.327E-01    0.506E-01
DAV:   5    -0.627266352660E+03    0.30122E-02   -0.11092E-02 26040   0.270E-01    0.196E-01
DAV:   6    -0.627266572763E+03   -0.22010E-03   -0.49143E-03 29844   0.155E-01    0.118E-01
DAV:   7    -0.627266570447E+03    0.23156E-05   -0.11229E-03 26616   0.763E-02    0.768E-02
DAV:   8    -0.627266570428E+03    0.19150E-07   -0.13602E-04 13884   0.325E-02
  82 F= -.62726657E+03 E0= -.62726657E+03  d E =-.628008E-01  mag=    20.0000
       N       E                     dE             d eps       ncg     rms          rms(c)
DAV:   1    -0.627034514200E+03    0.23206E+00   -0.68296E+01 21504   0.155E+01    0.187E+00
DAV:   2    -0.627219760653E+03   -0.18525E+00   -0.18445E+00 25548   0.263E+00    0.108E+00
DAV:   3    -0.627221441621E+03   -0.16810E-02   -0.71265E-02 31488   0.524E-01    0.668E-01
DAV:   4    -0.627217852861E+03    0.35888E-02   -0.85702E-03 31500   0.244E-01    0.424E-01
DAV:   5    -0.627215891300E+03    0.19616E-02   -0.62628E-03 27552   0.222E-01    0.156E-01
DAV:   6    -0.627216161682E+03   -0.27038E-03   -0.30671E-03 29580   0.128E-01    0.117E-01
DAV:   7    -0.627216116485E+03    0.45197E-04   -0.40108E-04 19956   0.493E-02
  83 F= -.62721612E+03 E0= -.62721612E+03  d E =0.504539E-01  mag=    20.0000
       N       E                     dE             d eps       ncg     rms          rms(c)
DAV:   1    -0.627223372017E+03   -0.72103E-02   -0.13967E+00 21504   0.225E+00    0.390E-01
DAV:   2    -0.627226291985E+03   -0.29200E-02   -0.45355E-02 27216   0.480E-01    0.396E-01
DAV:   3    -0.627226027890E+03    0.26410E-03   -0.37598E-03 28920   0.133E-01    0.258E-01
DAV:   4    -0.627225734603E+03    0.29329E-03   -0.29876E-03 30816   0.127E-01    0.173E-01
DAV:   5    -0.627225644807E+03    0.89796E-04   -0.87235E-04 25836   0.782E-02
  84 F= -.62722564E+03 E0= -.62722564E+03  d E =-.952832E-02  mag=    20.0000
       N       E                     dE             d eps       ncg     rms          rms(c)
DAV:   1    -0.627229628384E+03   -0.38938E-02   -0.12065E+00 21504   0.208E+00    0.369E-01
DAV:   2    -0.627231747756E+03   -0.21194E-02   -0.38485E-02 29232   0.423E-01    0.255E-01
DAV:   3    -0.627231616766E+03    0.13099E-03   -0.31025E-03 30108   0.140E-01    0.111E-01
DAV:   4    -0.627231523698E+03    0.93068E-04   -0.54869E-04 23004   0.640E-02
  85 F= -.62723152E+03 E0= -.62723152E+03  d E =-.587889E-02  mag=    20.0000
       N       E                     dE             d eps       ncg     rms          rms(c)
DAV:   1    -0.627234779135E+03   -0.31624E-02   -0.29939E-01 21504   0.103E+00    0.223E-01
DAV:   2    -0.627235051653E+03   -0.27252E-03   -0.92942E-03 27648   0.209E-01    0.132E-01
DAV:   3    -0.627235026039E+03    0.25614E-04   -0.84084E-04 27288   0.796E-02
  86 F= -.62723503E+03 E0= -.62723503E+03  d E =-.350234E-02  mag=    20.0000
       N       E                     dE             d eps       ncg     rms          rms(c)
DAV:   1    -0.627237954968E+03   -0.29033E-02   -0.50941E-01 21600   0.132E+00    0.176E-01
DAV:   2    -0.627239163751E+03   -0.12088E-02   -0.13199E-02 26772   0.227E-01    0.104E-01
DAV:   3    -0.627239180703E+03   -0.16952E-04   -0.70839E-04 26160   0.515E-02
  87 F= -.62723918E+03 E0= -.62723918E+03  d E =-.415466E-02  mag=    20.0000
       N       E                     dE             d eps       ncg     rms          rms(c)
DAV:   1    -0.627242263671E+03   -0.30999E-02   -0.19895E+00 21600   0.261E+00    0.335E-01
DAV:   2    -0.627247351060E+03   -0.50874E-02   -0.52705E-02 26892   0.452E-01    0.241E-01
DAV:   3    -0.627247367900E+03   -0.16841E-04   -0.25315E-03 30792   0.996E-02    0.137E-01
DAV:   4    -0.627247207358E+03    0.16054E-03   -0.49569E-04 23736   0.568E-02    0.967E-02
DAV:   5    -0.627247182986E+03    0.24372E-04   -0.34793E-04 20232   0.433E-02
  88 F= -.62724718E+03 E0= -.62724718E+03  d E =-.800228E-02  mag=    20.0000
       N       E                     dE             d eps       ncg     rms          rms(c)
DAV:   1    -0.627249905521E+03   -0.26982E-02   -0.32561E-01 21528   0.106E+00    0.173E-01
DAV:   2    -0.627250772869E+03   -0.86735E-03   -0.10325E-02 28008   0.226E-01    0.169E-01
DAV:   3    -0.627250738605E+03    0.34263E-04   -0.82847E-04 26520   0.681E-02
  89 F= -.62725074E+03 E0= -.62725074E+03  d E =-.355562E-02  mag=    20.0000
       N       E                     dE             d eps       ncg     rms          rms(c)
DAV:   1    -0.627253893434E+03   -0.31206E-02   -0.14446E+00 21504   0.223E+00    0.336E-01
DAV:   2    -0.627257410655E+03   -0.35172E-02   -0.39052E-02 26232   0.398E-01    0.200E-01
DAV:   3    -0.627257489158E+03   -0.78503E-04   -0.21857E-03 30624   0.973E-02    0.124E-01
DAV:   4    -0.627257371881E+03    0.11728E-03   -0.47984E-04 23220   0.557E-02    0.758E-02
DAV:   5    -0.627257346412E+03    0.25469E-04   -0.15882E-04 15816   0.402E-02
  90 F= -.62725735E+03 E0= -.62725735E+03  d E =-.660781E-02  mag=    20.0000
       N       E                     dE             d eps       ncg     rms          rms(c)
DAV:   1    -0.627260161505E+03   -0.27896E-02   -0.20686E-01 21504   0.859E-01    0.185E-01
DAV:   2    -0.627260344332E+03   -0.18283E-03   -0.67489E-03 27780   0.180E-01    0.115E-01
DAV:   3    -0.627260312018E+03    0.32314E-04   -0.58562E-04 25296   0.651E-02
  91 F= -.62726031E+03 E0= -.62726031E+03  d E =-.296561E-02  mag=    20.0000
       N       E                     dE             d eps       ncg     rms          rms(c)
DAV:   1    -0.627253811832E+03    0.65325E-02   -0.73728E-01 21504   0.160E+00    0.275E-01
DAV:   2    -0.627255147854E+03   -0.13360E-02   -0.22826E-02 27852   0.313E-01    0.191E-01
DAV:   3    -0.627255085374E+03    0.62481E-04   -0.14784E-03 29772   0.989E-02    0.880E-02
DAV:   4    -0.627255023765E+03    0.61609E-04   -0.17106E-04 14532   0.358E-02
  92 F= -.62725502E+03 E0= -.62725502E+03  d E =0.528825E-02  mag=    20.0000
       N       E                     dE             d eps       ncg     rms          rms(c)
DAV:   1    -0.627257958130E+03   -0.28728E-02   -0.31342E+00 21504   0.327E+00    0.415E-01
DAV:   2    -0.627265888496E+03   -0.79304E-02   -0.88086E-02 26280   0.579E-01    0.278E-01
DAV:   3    -0.627265862761E+03    0.25735E-04   -0.38479E-03 30924   0.144E-01    0.145E-01
DAV:   4    -0.627265707490E+03    0.15527E-03   -0.43162E-04 22356   0.491E-02    0.903E-02
DAV:   5    -0.627265634284E+03    0.73207E-04   -0.35541E-04 19392   0.454E-02
  93 F= -.62726563E+03 E0= -.62726563E+03  d E =-.106105E-01  mag=    20.0000
       N       E                     dE             d eps       ncg     rms          rms(c)
DAV:   1    -0.627267920541E+03   -0.22131E-02   -0.33575E-01 21504   0.107E+00    0.190E-01
DAV:   2    -0.627268878257E+03   -0.95772E-03   -0.10409E-02 28020   0.225E-01    0.183E-01
DAV:   3    -0.627268857676E+03    0.20581E-04   -0.90233E-04 27300   0.669E-02
  94 F= -.62726886E+03 E0= -.62726886E+03  d E =-.322339E-02  mag=    20.0000
       N       E                     dE             d eps       ncg     rms          rms(c)
DAV:   1    -0.627272133024E+03   -0.32548E-02   -0.90101E-01 21696   0.176E+00    0.235E-01
DAV:   2    -0.627274617898E+03   -0.24849E-02   -0.24973E-02 26988   0.322E-01    0.175E-01
DAV:   3    -0.627274607147E+03    0.10752E-04   -0.14583E-03 29328   0.808E-02    0.853E-02
DAV:   4    -0.627274532699E+03    0.74448E-04   -0.22456E-04 17376   0.471E-02
  95 F= -.62727453E+03 E0= -.62727453E+03  d E =-.567502E-02  mag=    20.0000
       N       E                     dE             d eps       ncg     rms          rms(c)
DAV:   1    -0.627277736206E+03   -0.31291E-02   -0.10718E+00 21600   0.192E+00    0.226E-01
DAV:   2    -0.627280477424E+03   -0.27412E-02   -0.27971E-02 26304   0.326E-01    0.141E-01
DAV:   3    -0.627280520887E+03   -0.43463E-04   -0.13220E-03 29064   0.695E-02    0.805E-02
DAV:   4    -0.627280455309E+03    0.65578E-04   -0.17128E-04 15000   0.385E-02
  96 F= -.62728046E+03 E0= -.62728046E+03  d E =-.592261E-02  mag=    20.0000
       N       E                     dE             d eps       ncg     rms          rms(c)
DAV:   1    -0.627281693093E+03   -0.11722E-02   -0.46300E-02 21696   0.402E-01    0.757E-02
DAV:   2    -0.627281780729E+03   -0.87636E-04   -0.15982E-03 28584   0.926E-02    0.838E-02
DAV:   3    -0.627281762227E+03    0.18502E-04   -0.10295E-04 12756   0.278E-02
  97 F= -.62728176E+03 E0= -.62728176E+03  d E =-.130692E-02  mag=    20.0000
       N       E                     dE             d eps       ncg     rms          rms(c)
DAV:   1    -0.627284795303E+03   -0.30146E-02   -0.18453E+00 21600   0.250E+00    0.350E-01
DAV:   2    -0.627289652242E+03   -0.48569E-02   -0.49600E-02 26760   0.434E-01    0.234E-01
DAV:   3    -0.627289793888E+03   -0.14165E-03   -0.25781E-03 31620   0.115E-01    0.148E-01
DAV:   4    -0.627289700259E+03    0.93629E-04   -0.16102E-04 15612   0.326E-02
  98 F= -.62728970E+03 E0= -.62728970E+03  d E =-.793803E-02  mag=    20.0000
       N       E                     dE             d eps       ncg     rms          rms(c)
DAV:   1    -0.627291003876E+03   -0.12100E-02   -0.56831E-02 21684   0.443E-01    0.681E-02
DAV:   2    -0.627291102546E+03   -0.98669E-04   -0.13957E-03 26916   0.820E-02    0.547E-02
DAV:   3    -0.627291099391E+03    0.31543E-05   -0.65685E-05 12384   0.249E-02
  99 F= -.62729110E+03 E0= -.62729110E+03  d E =-.139913E-02  mag=    20.0000
       N       E                     dE             d eps       ncg     rms          rms(c)
[...]
DAV:   1    -0.627343414696E+03   -0.17115E-02   -0.20466E-01 21696   0.838E-01    0.104E-01
DAV:   2    -0.627343929274E+03   -0.51458E-03   -0.53048E-03 27252   0.143E-01    0.691E-02
DAV:   3    -0.627343934646E+03   -0.53727E-05   -0.26975E-04 17808   0.347E-02
 112 F= -.62734393E+03 E0= -.62734393E+03  d E =-.229823E-02  mag=    20.0000
       N       E                     dE             d eps       ncg     rms          rms(c)
DAV:   1    -0.627345373380E+03   -0.14441E-02   -0.11880E-01 21504   0.647E-01    0.110E-01
DAV:   2    -0.627345646492E+03   -0.27311E-03   -0.38012E-03 28524   0.131E-01    0.992E-02
DAV:   3    -0.627345616624E+03    0.29868E-04   -0.22511E-04 16968   0.402E-02
 113 F= -.62734562E+03 E0= -.62734562E+03  d E =-.168198E-02  mag=    20.0000
       N       E                     dE             d eps       ncg     rms          rms(c)
DAV:   1    -0.627347664423E+03   -0.20179E-02   -0.10820E+00 21696   0.194E+00    0.240E-01
DAV:   2    -0.627350671376E+03   -0.30070E-02   -0.29389E-02 26556   0.333E-01    0.157E-01
DAV:   3    -0.627350719177E+03   -0.47801E-04   -0.14861E-03 29808   0.758E-02    0.826E-02
DAV:   4    -0.627350644366E+03    0.74811E-04   -0.17465E-04 16068   0.427E-02
 114 F= -.62735064E+03 E0= -.62735064E+03  d E =-.502774E-02  mag=    20.0000
       N       E                     dE             d eps       ncg     rms          rms(c)
DAV:   1    -0.627352050507E+03   -0.13313E-02   -0.12691E-01 21552   0.662E-01    0.883E-02
DAV:   2    -0.627352365986E+03   -0.31548E-03   -0.32453E-03 26724   0.109E-01    0.449E-02
DAV:   3    -0.627352372112E+03   -0.61258E-05   -0.12900E-04 14292   0.252E-02
 115 F= -.62735237E+03 E0= -.62735237E+03  d E =-.172775E-02  mag=    20.0000
       N       E                     dE             d eps       ncg     rms          rms(c)
DAV:   1    -0.627344841465E+03    0.75245E-02   -0.72864E+00 21600   0.501E+00    0.612E-01
DAV:   2    -0.627363841907E+03   -0.19000E-01   -0.20587E-01 27120   0.879E-01    0.442E-01
DAV:   3    -0.627364043054E+03   -0.20115E-03   -0.11177E-02 31920   0.220E-01    0.267E-01
DAV:   4    -0.627363603574E+03    0.43948E-03   -0.13414E-03 30648   0.890E-02    0.179E-01
DAV:   5    -0.627363422480E+03    0.18109E-03   -0.11410E-03 25944   0.758E-02    0.719E-02
DAV:   6    -0.627363422475E+03    0.51659E-08   -0.31078E-04 18648   0.482E-02
 116 F= -.62736342E+03 E0= -.62736342E+03  d E =-.110504E-01  mag=    20.0000
       N       E                     dE             d eps       ncg     rms          rms(c)
DAV:   1    -0.627314480070E+03    0.48942E-01   -0.24263E+01 21696   0.916E+00    0.107E+00
DAV:   2    -0.627382961897E+03   -0.68482E-01   -0.67199E-01 26112   0.153E+00    0.596E-01
DAV:   3    -0.627384180287E+03   -0.12184E-02   -0.25513E-02 30816   0.284E-01    0.349E-01
DAV:   4    -0.627382965587E+03    0.12147E-02   -0.32953E-03 29172   0.137E-01    0.203E-01
DAV:   5    -0.627382568622E+03    0.39696E-03   -0.20913E-03 26184   0.123E-01    0.626E-02
DAV:   6    -0.627382670355E+03   -0.10173E-03   -0.10670E-03 26304   0.665E-02    0.570E-02
DAV:   7    -0.627382652984E+03    0.17372E-04   -0.88007E-05 12672   0.275E-02
 117 F= -.62738265E+03 E0= -.62738265E+03  d E =-.192305E-01  mag=    20.0000
       N       E                     dE             d eps       ncg     rms          rms(c)
DAV:   1    -0.627358930713E+03    0.23740E-01   -0.56924E+00 21600   0.443E+00    0.506E-01
DAV:   2    -0.627374587777E+03   -0.15657E-01   -0.15641E-01 26256   0.738E-01    0.309E-01
DAV:   3    -0.627374778933E+03   -0.19116E-03   -0.62618E-03 31452   0.153E-01    0.188E-01
DAV:   4    -0.627374500751E+03    0.27818E-03   -0.55864E-04 24468   0.600E-02    0.120E-01
DAV:   5    -0.627374341644E+03    0.15911E-03   -0.62803E-04 23292   0.699E-02    0.402E-02
DAV:   6    -0.627374370505E+03   -0.28861E-04   -0.27202E-04 17856   0.361E-02
 118 F= -.62737437E+03 E0= -.62737437E+03  d E =0.828248E-02  mag=    20.0000
       N       E                     dE             d eps       ncg     rms          rms(c)
DAV:   1    -0.627316373855E+03    0.57968E-01   -0.26051E+01 21648   0.956E+00    0.113E+00
DAV:   2    -0.627391175680E+03   -0.74802E-01   -0.71815E-01 26148   0.160E+00    0.644E-01
DAV:   3    -0.627392590474E+03   -0.14148E-02   -0.27974E-02 30912   0.303E-01    0.371E-01
DAV:   4    -0.627391194733E+03    0.13957E-02   -0.30745E-03 29904   0.139E-01    0.228E-01
DAV:   5    -0.627390598347E+03    0.59639E-03   -0.28402E-03 26088   0.145E-01    0.984E-02
DAV:   6    -0.627390744317E+03   -0.14597E-03   -0.14766E-03 26856   0.745E-02    0.631E-02
DAV:   7    -0.627390718534E+03    0.25783E-04   -0.10717E-04 12888   0.321E-02
 119 F= -.62739072E+03 E0= -.62739072E+03  d E =-.163480E-01  mag=    20.0000
       N       E                     dE             d eps       ncg     rms          rms(c)
DAV:   1    -0.627384812507E+03    0.59318E-02   -0.36137E+00 21600   0.356E+00    0.440E-01
DAV:   2    -0.627395073492E+03   -0.10261E-01   -0.10137E-01 26652   0.607E-01    0.248E-01
DAV:   3    -0.627395417081E+03   -0.34359E-03   -0.47725E-03 30900   0.126E-01    0.150E-01
DAV:   4    -0.627395253059E+03    0.16402E-03   -0.37782E-04 20508   0.509E-02    0.978E-02
DAV:   5    -0.627395179019E+03    0.74039E-04   -0.44774E-04 21096   0.571E-02
 120 F= -.62739518E+03 E0= -.62739518E+03  d E =-.446049E-02  mag=    20.0000
       N       E                     dE             d eps       ncg     rms          rms(c)
DAV:   1    -0.627392532791E+03    0.27203E-02   -0.18091E+00 21552   0.255E+00    0.319E-01
DAV:   2    -0.627397725603E+03   -0.51928E-02   -0.50436E-02 26664   0.437E-01    0.194E-01
DAV:   3    -0.627397838981E+03   -0.11338E-03   -0.21882E-03 30720   0.940E-02    0.118E-01
DAV:   4    -0.627397737621E+03    0.10136E-03   -0.20488E-04 16992   0.448E-02    0.835E-02
DAV:   5    -0.627397709526E+03    0.28095E-04   -0.46783E-04 19836   0.557E-02
 121 F= -.62739771E+03 E0= -.62739771E+03  d E =-.253051E-02  mag=    20.0000
       N       E                     dE             d eps       ncg     rms          rms(c)
DAV:   1    -0.627394152464E+03    0.35852E-02   -0.19746E+00 21504   0.270E+00    0.381E-01
DAV:   2    -0.627399984230E+03   -0.58318E-02   -0.56011E-02 26364   0.476E-01    0.253E-01
DAV:   3    -0.627400122103E+03   -0.13787E-03   -0.24472E-03 30780   0.104E-01    0.137E-01
DAV:   4    -0.627399980084E+03    0.14202E-03   -0.39194E-04 21696   0.651E-02    0.933E-02
DAV:   5    -0.627399956315E+03    0.23769E-04   -0.35037E-04 18996   0.543E-02
 122 F= -.62739996E+03 E0= -.62739996E+03  d E =-.224679E-02  mag=    20.0000
       N       E                     dE             d eps       ncg     rms          rms(c)
DAV:   1    -0.627395341535E+03    0.46385E-02   -0.23281E+00 21504   0.290E+00    0.368E-01
DAV:   2    -0.627401910758E+03   -0.65692E-02   -0.64343E-02 26796   0.495E-01    0.208E-01
DAV:   3    -0.627402140759E+03   -0.23000E-03   -0.33757E-03 30540   0.108E-01    0.118E-01
DAV:   4    -0.627402002940E+03    0.13782E-03   -0.39579E-04 21408   0.537E-02    0.810E-02
DAV:   5    -0.627401961375E+03    0.41566E-04   -0.34268E-04 18528   0.523E-02
 123 F= -.62740196E+03 E0= -.62740196E+03  d E =-.200506E-02  mag=    20.0000
       N       E                     dE             d eps       ncg     rms          rms(c)
DAV:   1    -0.627401868795E+03    0.13415E-03   -0.80692E-02 21840   0.529E-01    0.823E-02
DAV:   2    -0.627402113271E+03   -0.24448E-03   -0.23524E-03 26220   0.969E-02    0.490E-02
DAV:   3    -0.627402121714E+03   -0.84429E-05   -0.99438E-05 13212   0.232E-02
 124 F= -.62740212E+03 E0= -.62740212E+03  d E =-.160339E-03  mag=    20.0000
       N       E                     dE             d eps       ncg     rms          rms(c)
DAV:   1    -0.627402276751E+03   -0.16348E-03   -0.10544E-01 21696   0.639E-01    0.780E-02
DAV:   2    -0.627402561544E+03   -0.28479E-03   -0.28494E-03 25248   0.110E-01    0.478E-02
DAV:   3    -0.627402559986E+03    0.15578E-05   -0.68065E-05 12504   0.238E-02
 125 F= -.62740256E+03 E0= -.62740256E+03  d E =-.438272E-03  mag=    20.0000
       N       E                     dE             d eps       ncg     rms          rms(c)
DAV:   1    -0.627402725827E+03   -0.16428E-03   -0.40724E-02 21648   0.396E-01    0.584E-02
DAV:   2    -0.627402842657E+03   -0.11683E-03   -0.11210E-03 25356   0.704E-02    0.470E-02
DAV:   3    -0.627402840330E+03    0.23277E-05   -0.45791E-05 11976   0.183E-02
 126 F= -.62740284E+03 E0= -.62740284E+03  d E =-.280343E-03  mag=    20.0000
       N       E                     dE             d eps       ncg     rms          rms(c)
DAV:   1    -0.627402961201E+03   -0.11854E-03   -0.12361E-01 21600   0.688E-01    0.103E-01
DAV:   2    -0.627403320034E+03   -0.35883E-03   -0.31500E-03 24888   0.116E-01    0.604E-02
DAV:   3    -0.627403331899E+03   -0.11865E-04   -0.13206E-04 13632   0.277E-02
 127 F= -.62740333E+03 E0= -.62740333E+03  d E =-.491569E-03  mag=    20.0000
       N       E                     dE             d eps       ncg     rms          rms(c)
DAV:   1    -0.627403470949E+03   -0.15092E-03   -0.27412E-02 21648   0.324E-01    0.448E-02
DAV:   2    -0.627403535837E+03   -0.64888E-04   -0.77951E-04 24552   0.637E-02
 128 F= -.62740354E+03 E0= -.62740354E+03  d E =-.203938E-03  mag=    20.0000
       N       E                     dE             d eps       ncg     rms          rms(c)
DAV:   1    -0.627403650757E+03   -0.17981E-03   -0.47410E-02 21648   0.426E-01    0.822E-02
DAV:   2    -0.627403810281E+03   -0.15952E-03   -0.14199E-03 26784   0.808E-02    0.591E-02
DAV:   3    -0.627403810026E+03    0.25483E-06   -0.59532E-05 12276   0.222E-02
 129 F= -.62740381E+03 E0= -.62740381E+03  d E =-.274188E-03  mag=    20.0000
       N       E                     dE             d eps       ncg     rms          rms(c)
DAV:   1    -0.627403832362E+03   -0.22081E-04   -0.40890E-04 17496   0.410E-02    0.230E-02
DAV:   2    -0.627403832229E+03    0.13220E-06   -0.18169E-05 11616   0.117E-02
 130 F= -.62740383E+03 E0= -.62740383E+03  d E =-.222035E-04  mag=    20.0000
       N       E                     dE             d eps       ncg     rms          rms(c)
DAV:   1    -0.627404010729E+03   -0.17837E-03   -0.50452E-02 21600   0.439E-01    0.479E-02
DAV:   2    -0.627404113491E+03   -0.10276E-03   -0.14209E-03 26568   0.825E-02    0.340E-02
DAV:   3    -0.627404117105E+03   -0.36135E-05   -0.13168E-04 12168   0.252E-02
 131 F= -.62740412E+03 E0= -.62740412E+03  d E =-.284876E-03  mag=    20.0000
       N       E                     dE             d eps       ncg     rms          rms(c)
DAV:   1    -0.627403909990E+03    0.20350E-03   -0.16614E-02 21600   0.255E-01    0.351E-02
DAV:   2    -0.627403955405E+03   -0.45416E-04   -0.49843E-04 17796   0.526E-02
 132 F= -.62740396E+03 E0= -.62740396E+03  d E =0.161700E-03  mag=    20.0000
       N       E                     dE             d eps       ncg     rms          rms(c)
DAV:   1    -0.627403960458E+03   -0.50469E-04   -0.55566E-02 21648   0.455E-01    0.921E-02
DAV:   2    -0.627404162611E+03   -0.20215E-03   -0.17180E-03 26484   0.100E-01    0.769E-02
DAV:   3    -0.627404170540E+03   -0.79292E-05   -0.10270E-04 13140   0.296E-02
 133 F= -.62740417E+03 E0= -.62740417E+03  d E =-.215135E-03  mag=    20.0000
       N       E                     dE             d eps       ncg     rms          rms(c)
DAV:   1    -0.627404297111E+03   -0.13450E-03   -0.53308E-02 22080   0.458E-01    0.521E-02
DAV:   2    -0.627404417846E+03   -0.12073E-03   -0.16331E-03 28008   0.947E-02    0.581E-02
DAV:   3    -0.627404406696E+03    0.11150E-04   -0.11603E-04 13020   0.294E-02
 134 F= -.62740441E+03 E0= -.62740441E+03  d E =-.236156E-03  mag=    20.0000
       N       E                     dE             d eps       ncg     rms          rms(c)
DAV:   1    -0.627404514733E+03   -0.96888E-04   -0.38896E-02 21648   0.385E-01    0.755E-02
DAV:   2    -0.627404639382E+03   -0.12465E-03   -0.99365E-04 23484   0.679E-02    0.446E-02
DAV:   3    -0.627404644208E+03   -0.48263E-05   -0.43817E-05 11928   0.166E-02
 135 F= -.62740464E+03 E0= -.62740464E+03  d E =-.237512E-03  mag=    20.0000
       N       E                     dE             d eps       ncg     rms          rms(c)
DAV:   1    -0.627404780607E+03   -0.14123E-03   -0.33966E-02 21600   0.360E-01    0.436E-02
DAV:   2    -0.627404861521E+03   -0.80914E-04   -0.99887E-04 25440   0.715E-02
 136 F= -.62740486E+03 E0= -.62740486E+03  d E =-.217313E-03  mag=    20.0000
       N       E                     dE             d eps       ncg     rms          rms(c)
DAV:   1    -0.627404952482E+03   -0.17187E-03   -0.25578E-02 21600   0.314E-01    0.614E-02
DAV:   2    -0.627405041631E+03   -0.89148E-04   -0.82637E-04 24372   0.635E-02
 137 F= -.62740504E+03 E0= -.62740504E+03  d E =-.180110E-03  mag=    20.0000
       N       E                     dE             d eps       ncg     rms          rms(c)
DAV:   1    -0.627405119765E+03   -0.16728E-03   -0.18068E-02 21624   0.262E-01    0.622E-02
DAV:   2    -0.627405178690E+03   -0.58925E-04   -0.47393E-04 17880   0.501E-02
 138 F= -.62740518E+03 E0= -.62740518E+03  d E =-.137059E-03  mag=    20.0000
       N       E                     dE             d eps       ncg     rms          rms(c)
DAV:   1    -0.627405285367E+03   -0.16560E-03   -0.24740E-02 21600   0.311E-01    0.589E-02
DAV:   2    -0.627405347829E+03   -0.62462E-04   -0.70951E-04 22572   0.620E-02
 139 F= -.62740535E+03 E0= -.62740535E+03  d E =-.169139E-03  mag=    20.0000
       N       E                     dE             d eps       ncg     rms          rms(c)
DAV:   1    -0.627405416002E+03   -0.13063E-03   -0.51520E-03 21768   0.142E-01    0.299E-02
DAV:   2    -0.627405422712E+03   -0.67100E-05   -0.11561E-04 11760   0.281E-02
 140 F= -.62740542E+03 E0= -.62740542E+03  d E =-.748833E-04  mag=    20.0000
       N       E                     dE             d eps       ncg     rms          rms(c)
DAV:   1    -0.627405167063E+03    0.24894E-03   -0.22087E-02 21600   0.290E-01    0.830E-02
DAV:   2    -0.627405213862E+03   -0.46799E-04   -0.89786E-04 25596   0.797E-02
 141 F= -.62740521E+03 E0= -.62740521E+03  d E =0.208850E-03  mag=    20.0000
       N       E                     dE             d eps       ncg     rms          rms(c)
DAV:   1    -0.627405380378E+03   -0.21331E-03   -0.12426E-01 21504   0.701E-01    0.989E-02
DAV:   2    -0.627405661036E+03   -0.28066E-03   -0.44366E-03 27576   0.157E-01    0.889E-02
DAV:   3    -0.627405639972E+03    0.21064E-04   -0.26196E-04 15732   0.498E-02
 142 F= -.62740564E+03 E0= -.62740564E+03  d E =-.426109E-03  mag=    20.0000
       N       E                     dE             d eps       ncg     rms          rms(c)
DAV:   1    -0.627405743387E+03   -0.82352E-04   -0.23733E-02 21612   0.306E-01    0.563E-02
DAV:   2    -0.627405803418E+03   -0.60031E-04   -0.71291E-04 22920   0.588E-02
 143 F= -.62740580E+03 E0= -.62740580E+03  d E =-.163447E-03  mag=    20.0000
       N       E                     dE             d eps       ncg     rms          rms(c)
DAV:   1    -0.627405829531E+03   -0.86143E-04   -0.32447E-02 21600   0.344E-01    0.954E-02
DAV:   2    -0.627405957692E+03   -0.12816E-03   -0.80994E-04 24096   0.743E-02    0.675E-02
DAV:   3    -0.627405974762E+03   -0.17070E-04   -0.10273E-04 12444   0.294E-02
 144 F= -.62740597E+03 E0= -.62740597E+03  d E =-.171344E-03  mag=    20.0000
       N       E                     dE             d eps       ncg     rms          rms(c)
DAV:   1    -0.627406049621E+03   -0.91929E-04   -0.84482E-03 21456   0.182E-01    0.261E-02
DAV:   2    -0.627406066637E+03   -0.17015E-04   -0.22883E-04 12744   0.387E-02
 145 F= -.62740607E+03 E0= -.62740607E+03  d E =-.918744E-04  mag=    20.0000
       N       E                     dE             d eps       ncg     rms          rms(c)
DAV:   1    -0.627406123355E+03   -0.73733E-04   -0.30904E-03 21180   0.111E-01    0.248E-02
DAV:   2    -0.627406122357E+03    0.99740E-06   -0.97700E-05 11400   0.274E-02
 146 F= -.62740612E+03 E0= -.62740612E+03  d E =-.557204E-04  mag=    20.0000
       N       E                     dE             d eps       ncg     rms          rms(c)
DAV:   1    -0.627406230104E+03   -0.10675E-03   -0.40965E-02 21600   0.403E-01    0.535E-02
DAV:   2    -0.627406313825E+03   -0.83720E-04   -0.12003E-03 24408   0.739E-02    0.367E-02
DAV:   3    -0.627406307681E+03    0.61433E-05   -0.43687E-05 11976   0.213E-02
 147 F= -.62740631E+03 E0= -.62740631E+03  d E =-.185324E-03  mag=    20.0000
       N       E                     dE             d eps       ncg     rms          rms(c)
DAV:   1    -0.627406349070E+03   -0.35245E-04   -0.11657E-03 22104   0.704E-02    0.379E-02
DAV:   2    -0.627406328805E+03    0.20265E-04   -0.91577E-05 11760   0.277E-02
 148 F= -.62740633E+03 E0= -.62740633E+03  d E =-.211237E-04  mag=    20.0000
       N       E                     dE             d eps       ncg     rms          rms(c)
DAV:   1    -0.627406425210E+03   -0.76140E-04   -0.28966E-02 21600   0.338E-01    0.585E-02
DAV:   2    -0.627406479759E+03   -0.54549E-04   -0.86944E-04 23604   0.662E-02
 149 F= -.62740648E+03 E0= -.62740648E+03  d E =-.150954E-03  mag=    20.0000
       N       E                     dE             d eps       ncg     rms          rms(c)
DAV:   1    -0.627406381769E+03    0.43441E-04   -0.53277E-02 21600   0.444E-01    0.126E-01
DAV:   2    -0.627406582055E+03   -0.20029E-03   -0.17405E-03 25680   0.937E-02    0.832E-02
DAV:   3    -0.627406594838E+03   -0.12783E-04   -0.11569E-04 14292   0.314E-02
 150 F= -.62740659E+03 E0= -.62740659E+03  d E =-.115079E-03  mag=    20.0000
       N       E                     dE             d eps       ncg     rms          rms(c)
DAV:   1    -0.627406759628E+03   -0.17757E-03   -0.12219E-02 21600   0.219E-01    0.863E-02
DAV:   2    -0.627406723009E+03    0.36619E-04   -0.73554E-04 24336   0.666E-02
 151 F= -.62740672E+03 E0= -.62740672E+03  d E =-.128171E-03  mag=    20.0000
       N       E                     dE             d eps       ncg     rms          rms(c)
DAV:   1    -0.627406853953E+03   -0.94326E-04   -0.33862E-02 21636   0.372E-01    0.111E-01
DAV:   2    -0.627406801362E+03    0.52591E-04   -0.12488E-03 25692   0.855E-02    0.723E-02
DAV:   3    -0.627406780389E+03    0.20973E-04   -0.11610E-04 15240   0.394E-02
 152 F= -.62740678E+03 E0= -.62740678E+03  d E =-.573805E-04  mag=    20.0000
       N       E                     dE             d eps       ncg     rms          rms(c)
DAV:   1    -0.627406923238E+03   -0.12188E-03   -0.18040E-02 21864   0.260E-01    0.946E-02
DAV:   2    -0.627406944862E+03   -0.21624E-04   -0.63386E-04 22404   0.583E-02
 153 F= -.62740694E+03 E0= -.62740694E+03  d E =-.164473E-03  mag=    20.0000
       N       E                     dE             d eps       ncg     rms          rms(c)
DAV:   1    -0.627406978600E+03   -0.55362E-04   -0.24664E-03 20784   0.981E-02    0.448E-02
DAV:   2    -0.627406965790E+03    0.12809E-04   -0.12168E-04 12864   0.294E-02
 154 F= -.62740697E+03 E0= -.62740697E+03  d E =-.209282E-04  mag=    20.0000
       N       E                     dE             d eps       ncg     rms          rms(c)
DAV:   1    -0.627407009419E+03   -0.30819E-04   -0.33087E-02 21600   0.363E-01    0.726E-02
DAV:   2    -0.627407084833E+03   -0.75415E-04   -0.10136E-03 24288   0.688E-02    0.440E-02
DAV:   3    -0.627407084460E+03    0.37302E-06   -0.56346E-05 12948   0.244E-02
 155 F= -.62740708E+03 E0= -.62740708E+03  d E =-.118670E-03  mag=    20.0000
       N       E                     dE             d eps       ncg     rms          rms(c)
DAV:   1    -0.627407157608E+03   -0.72775E-04   -0.68316E-03 21648   0.164E-01    0.297E-02
DAV:   2    -0.627407163005E+03   -0.53971E-05   -0.17976E-04 12336   0.348E-02
 156 F= -.62740716E+03 E0= -.62740716E+03  d E =-.785450E-04  mag=    20.0000
