       N       E                     dE             d eps       ncg     rms          rms(c)
DAV:   1     0.551539221377E+04    0.55154E+04   -0.19754E+05 21504   0.125E+03
DAV:   2     0.488109217037E+03   -0.50273E+04   -0.46280E+04 22248   0.349E+02
DAV:   3    -0.723117014708E+03   -0.12112E+04   -0.11741E+04 25140   0.178E+02
DAV:   4    -0.825254766828E+03   -0.10214E+03   -0.10070E+03 32148   0.590E+01
DAV:   5    -0.829020091661E+03   -0.37653E+01   -0.37210E+01 34092   0.128E+01
DAV:   6    -0.829181991025E+03   -0.16190E+00   -0.16077E+00 33984   0.234E+00
DAV:   7    -0.829190130210E+03   -0.81392E-02   -0.81107E-02 34128   0.531E-01
DAV:   8    -0.829190653901E+03   -0.52369E-03   -0.52277E-03 28080   0.118E-01
DAV:   9    -0.829190690618E+03   -0.36717E-04   -0.36656E-04 20004   0.358E-02
DAV:  10    -0.829190694620E+03   -0.40020E-05   -0.39861E-05 17616   0.166E-02
DAV:  11    -0.829190696121E+03   -0.15008E-05   -0.14938E-05 16572   0.114E-02
DAV:  12    -0.829190696985E+03   -0.86361E-06   -0.86033E-06 16044   0.858E-03    0.114E+02
DAV:  13    -0.617996186838E+03    0.21119E+03   -0.12766E+03 32328   0.823E+01    0.876E+01
DAV:  14    -0.681255366716E+03   -0.63259E+02   -0.72685E+02 36048   0.105E+02    0.107E+02
DAV:  15    -0.642581481023E+03    0.38674E+02   -0.53908E+02 33900   0.727E+01    0.669E+01
DAV:  16    -0.626469345732E+03    0.16112E+02   -0.18945E+02 33468   0.703E+01    0.902E+01
DAV:  17    -0.627056266164E+03   -0.58692E+00   -0.39971E+02 35496   0.528E+01    0.614E+01
DAV:  18    -0.612942252346E+03    0.14114E+02   -0.17658E+02 33888   0.294E+01    0.332E+01
DAV:  19    -0.620191075104E+03   -0.72488E+01   -0.14423E+02 36912   0.414E+01    0.229E+01
DAV:  20    -0.620915567093E+03   -0.72449E+00   -0.19133E+02 35172   0.289E+01    0.301E+01
DAV:  21    -0.614932769215E+03    0.59828E+01   -0.32651E+01 32124   0.160E+01    0.368E+01
DAV:  22    -0.615411979254E+03   -0.47921E+00   -0.64789E+00 31188   0.894E+00    0.327E+01
DAV:  23    -0.616173584620E+03   -0.76161E+00   -0.14984E+00 30048   0.292E+00    0.322E+01
DAV:  24    -0.616477674947E+03   -0.30409E+00   -0.22906E-01 32076   0.204E+00    0.319E+01
DAV:  25    -0.617805533772E+03   -0.13279E+01   -0.10126E+00 38268   0.749E+00    0.307E+01
DAV:  26    -0.618915155989E+03   -0.11096E+01   -0.31376E+00 34656   0.125E+01    0.268E+01
DAV:  27    -0.619686170937E+03   -0.77101E+00   -0.36378E+00 32220   0.652E+00    0.240E+01
DAV:  28    -0.619927601601E+03   -0.24143E+00   -0.67478E+00 34728   0.113E+01    0.231E+01
DAV:  29    -0.619514013619E+03    0.41359E+00   -0.20016E+00 33060   0.698E+00    0.222E+01
DAV:  30    -0.620077636099E+03   -0.56362E+00   -0.46762E+00 36384   0.981E+00    0.236E+01
DAV:  31    -0.620615413929E+03   -0.53778E+00   -0.11187E+00 26856   0.220E+00    0.230E+01
DAV:  32    -0.620868177087E+03   -0.25276E+00   -0.11055E-01 32796   0.115E+00    0.229E+01
DAV:  33    -0.621219056368E+03   -0.35088E+00   -0.23756E-01 35628   0.271E+00    0.227E+01
DAV:  34    -0.623257455443E+03   -0.20384E+01   -0.78649E-01 36228   0.393E+00    0.226E+01
DAV:  35    -0.623057116480E+03    0.20034E+00   -0.58103E-01 33780   0.346E+00    0.220E+01
DAV:  36    -0.623103128532E+03   -0.46012E-01   -0.27297E-01 31488   0.122E+00    0.220E+01
DAV:  37    -0.623094885096E+03    0.82434E-02   -0.27943E-02 26760   0.413E-01    0.220E+01
DAV:  38    -0.623094530646E+03    0.35445E-03   -0.20480E-03 32232   0.936E-02    0.220E+01
DAV:  39    -0.623124485294E+03   -0.29955E-01   -0.38971E-02 38496   0.592E-01    0.220E+01
DAV:  40    -0.623131272148E+03   -0.67869E-02   -0.10818E-01 32508   0.417E-01    0.219E+01
DAV:  41    -0.623190569863E+03   -0.59298E-01   -0.87881E-02 35172   0.560E-01    0.219E+01
DAV:  42    -0.622867886851E+03    0.32268E+00   -0.15472E-01 37536   0.136E+00    0.216E+01
DAV:  43    -0.622829101602E+03    0.38785E-01   -0.75117E-02 31404   0.794E-01    0.215E+01
DAV:  44    -0.622851258233E+03   -0.22157E-01   -0.10555E-02 29832   0.278E-01    0.215E+01
DAV:  45    -0.622968019243E+03   -0.11676E+00   -0.21411E-02 35340   0.712E-01    0.215E+01
DAV:  46    -0.623242837947E+03   -0.27482E+00   -0.26895E-02 33924   0.105E+00    0.218E+01
DAV:  47    -0.623307966486E+03   -0.65129E-01   -0.32131E-02 31656   0.463E-01    0.219E+01
DAV:  48    -0.623321919648E+03   -0.13953E-01   -0.15882E-01 37284   0.147E+00    0.218E+01
DAV:  49    -0.623324962641E+03   -0.30430E-02   -0.18738E-01 35220   0.128E+00    0.211E+01
DAV:  50    -0.623584099636E+03   -0.25914E+00   -0.18756E-01 37020   0.211E+00    0.213E+01
DAV:  51    -0.623587005644E+03   -0.29060E-02   -0.41508E-02 24792   0.441E-01    0.213E+01
DAV:  52    -0.623626231189E+03   -0.39226E-01   -0.23350E-03 32844   0.209E-01    0.213E+01
DAV:  53    -0.623746070960E+03   -0.11984E+00   -0.11364E-01 38148   0.153E+00    0.212E+01
DAV:  54    -0.623818399899E+03   -0.72329E-01   -0.15452E-01 33624   0.128E+00    0.210E+01
DAV:  55    -0.623307439670E+03    0.51096E+00   -0.21257E+00 34752   0.289E+00    0.198E+01
DAV:  56    -0.624090405116E+03   -0.78297E+00   -0.64864E-01 34248   0.308E+00    0.195E+01
DAV:  57    -0.624214494574E+03   -0.12409E+00   -0.49052E-01 32328   0.200E+00    0.200E+01
DAV:  58    -0.623888158518E+03    0.32634E+00   -0.10136E+00 36852   0.477E+00    0.223E+01
DAV:  59    -0.623926986744E+03   -0.38828E-01   -0.33316E-01 24168   0.120E+00    0.222E+01
DAV:  60    -0.623913577598E+03    0.13409E-01   -0.25511E-02 33564   0.481E-01    0.221E+01
DAV:  61    -0.623913174971E+03    0.40263E-03   -0.51966E-03 27768   0.151E-01    0.221E+01
DAV:  62    -0.623992218602E+03   -0.79044E-01   -0.29367E-03 36864   0.327E-01    0.222E+01
DAV:  63    -0.623866828120E+03    0.12539E+00   -0.49768E+00 35736   0.779E+00    0.224E+01
DAV:  64    -0.624142485148E+03   -0.27566E+00   -0.21771E+00 34836   0.704E+00    0.254E+01
DAV:  65    -0.623944531999E+03    0.19795E+00   -0.29244E-01 33924   0.239E+00    0.246E+01
DAV:  66    -0.624029393694E+03   -0.84862E-01   -0.84640E-02 34068   0.120E+00    0.243E+01
DAV:  67    -0.623692851626E+03    0.33654E+00   -0.12334E+00 38136   0.578E+00    0.226E+01
DAV:  68    -0.623711939338E+03   -0.19088E-01   -0.37140E+00 35688   0.108E+01    0.183E+01
DAV:  69    -0.623802588605E+03   -0.90649E-01   -0.18924E+00 35580   0.660E+00    0.204E+01
DAV:  70    -0.623282191608E+03    0.52040E+00   -0.19018E+00 34320   0.472E+00    0.190E+01
DAV:  71    -0.622645675282E+03    0.63652E+00   -0.21081E+00 36420   0.530E+00    0.172E+01
DAV:  72    -0.622375739900E+03    0.26994E+00   -0.64754E-01 32076   0.247E+00    0.179E+01
DAV:  73    -0.621649113323E+03    0.72663E+00   -0.21480E+01 35916   0.211E+01    0.211E+01
DAV:  74    -0.622741488771E+03   -0.10924E+01   -0.29088E+01 36852   0.183E+01    0.178E+01
DAV:  75    -0.622306689224E+03    0.43480E+00   -0.45731E+00 34464   0.682E+00    0.156E+01
DAV:  76    -0.621619806898E+03    0.68688E+00   -0.15992E+00 33912   0.367E+00    0.147E+01
DAV:  77    -0.621682072828E+03   -0.62266E-01   -0.28647E-01 26592   0.109E+00    0.145E+01
DAV:  78    -0.622754602479E+03   -0.10725E+01   -0.20392E+00 37440   0.700E+00    0.158E+01
DAV:  79    -0.623135022577E+03   -0.38042E+00   -0.61253E-01 31644   0.249E+00    0.169E+01
DAV:  80    -0.623160705916E+03   -0.25683E-01   -0.12550E-01 31332   0.853E-01    0.164E+01
DAV:  81    -0.623461871489E+03   -0.30117E+00   -0.29331E-01 36192   0.196E+00    0.184E+01
DAV:  82    -0.623459478538E+03    0.23930E-02   -0.67966E-02 26172   0.537E-01    0.185E+01
DAV:  83    -0.623243179042E+03    0.21630E+00   -0.83743E+00 37800   0.616E+00    0.134E+01
DAV:  84    -0.623608210891E+03   -0.36503E+00   -0.54626E-01 32376   0.261E+00    0.130E+01
DAV:  85    -0.623463541009E+03    0.14467E+00   -0.79979E-02 30576   0.970E-01    0.131E+01
DAV:  86    -0.623607079448E+03   -0.14354E+00   -0.89399E-02 36180   0.141E+00    0.141E+01
DAV:  87    -0.623777715637E+03   -0.17064E+00   -0.64756E-02 33240   0.905E-01    0.141E+01
DAV:  88    -0.623592799437E+03    0.18492E+00   -0.63986E-01 37740   0.363E+00    0.156E+01
DAV:  89    -0.623788931489E+03   -0.19613E+00   -0.24036E-01 32460   0.184E+00    0.166E+01
DAV:  90    -0.624119673622E+03   -0.33074E+00   -0.95863E-02 33984   0.181E+00    0.171E+01
DAV:  91    -0.624166984184E+03   -0.47311E-01   -0.60581E-02 31740   0.787E-01    0.173E+01
DAV:  92    -0.624273050207E+03   -0.10607E+00   -0.10919E-01 36708   0.145E+00    0.172E+01
DAV:  93    -0.624285430095E+03   -0.12380E-01   -0.20403E+01 36612   0.128E+01    0.223E+01
DAV:  94    -0.624636041370E+03   -0.35061E+00   -0.37339E+00 30792   0.590E+00    0.194E+01
DAV:  95    -0.624036492927E+03    0.59955E+00   -0.18804E+00 35340   0.582E+00    0.177E+01
DAV:  96    -0.624591755134E+03   -0.55526E+00   -0.52122E-01 31332   0.291E+00    0.172E+01
DAV:  97    -0.624631498868E+03   -0.39744E-01   -0.11984E-01 29856   0.809E-01    0.171E+01
DAV:  98    -0.624635372002E+03   -0.38731E-02   -0.99855E-02 36960   0.147E+00    0.171E+01
DAV:  99    -0.624933068860E+03   -0.29770E+00   -0.11086E-01 33264   0.323E+00    0.163E+01
DAV: 100    -0.625566512782E+03   -0.63344E+00   -0.99942E-01 34368   0.646E+00
   1 F= -.62556651E+03 E0= -.62553956E+03  d E =-.625567E+03  mag=    17.6201
       N       E                     dE             d eps       ncg     rms          rms(c)
DAV:   1    -0.625644374323E+03   -0.71131E+00   -0.76732E+02 21504   0.542E+01    0.156E+01
DAV:   2    -0.625700330599E+03   -0.55956E-01   -0.40940E+01 32904   0.339E+01    0.161E+01
DAV:   3    -0.626541134452E+03   -0.84080E+00   -0.18883E+01 30384   0.121E+01    0.113E+01
DAV:   4    -0.626574518076E+03   -0.33384E-01   -0.40576E+00 30996   0.121E+01    0.109E+01
DAV:   5    -0.626650498048E+03   -0.75980E-01   -0.11980E+00 31368   0.273E+00    0.868E+00
DAV:   6    -0.626729700023E+03   -0.79202E-01   -0.26900E-01 34536   0.278E+00    0.447E+00
DAV:   7    -0.626831963781E+03   -0.10226E+00   -0.51588E-01 31320   0.273E+00    0.232E+00
DAV:   8    -0.626871052498E+03   -0.39089E-01   -0.30817E-01 31308   0.157E+00    0.137E+00
DAV:   9    -0.626858658415E+03    0.12394E-01   -0.47714E-02 29832   0.130E+00    0.115E+00
DAV:  10    -0.626859037570E+03   -0.37916E-03   -0.37659E-02 32052   0.614E-01    0.705E-01
DAV:  11    -0.626862004264E+03   -0.29667E-02   -0.16054E-02 33096   0.621E-01    0.560E-01
DAV:  12    -0.626866089006E+03   -0.40847E-02   -0.72219E-03 34188   0.450E-01    0.508E-01
DAV:  13    -0.626868336600E+03   -0.22476E-02   -0.93315E-03 31356   0.274E-01    0.474E-01
DAV:  14    -0.626870298982E+03   -0.19624E-02   -0.22943E-03 28860   0.106E-01    0.421E-01
DAV:  15    -0.626874195011E+03   -0.38960E-02   -0.19984E-03 31224   0.142E-01    0.360E-01
DAV:  16    -0.626877370504E+03   -0.31755E-02   -0.15690E-03 30948   0.117E-01    0.294E-01
DAV:  17    -0.626879877261E+03   -0.25068E-02   -0.20973E-03 31464   0.118E-01    0.240E-01
DAV:  18    -0.626881200618E+03   -0.13234E-02   -0.17789E-03 31500   0.122E-01    0.165E-01
DAV:  19    -0.626881798707E+03   -0.59809E-03   -0.95981E-04 28944   0.100E-01    0.106E-01
DAV:  20    -0.626881923054E+03   -0.12435E-03   -0.49254E-04 24420   0.961E-02    0.821E-02
DAV:  21    -0.626882091667E+03   -0.16861E-03   -0.83131E-04 28380   0.880E-02    0.659E-02
DAV:  22    -0.626882216716E+03   -0.12505E-03   -0.32950E-04 19344   0.380E-02    0.556E-02
DAV:  23    -0.626882252214E+03   -0.35498E-04   -0.53666E-05 12216   0.534E-02
   2 F= -.62688225E+03 E0= -.62688225E+03  d E =-.131574E+01  mag=    19.9865
       N       E                     dE             d eps       ncg     rms          rms(c)
DAV:   1    -0.627465063160E+03   -0.58285E+00   -0.12388E+02 21504   0.223E+01    0.505E+00
DAV:   2    -0.627614066365E+03   -0.14900E+00   -0.47038E+00 30264   0.630E+00    0.502E+00
DAV:   3    -0.627607798185E+03    0.62682E-02   -0.88197E-01 30876   0.228E+00    0.354E+00
DAV:   4    -0.627566562023E+03    0.41236E-01   -0.17264E-01 30780   0.957E-01    0.244E+00
DAV:   5    -0.627543173611E+03    0.23388E-01   -0.67452E-02 27384   0.779E-01    0.887E-01
DAV:   6    -0.627544127980E+03   -0.95437E-03   -0.39334E-02 30084   0.424E-01    0.394E-01
DAV:   7    -0.627543826093E+03    0.30189E-03   -0.97633E-03 31884   0.245E-01    0.233E-01
DAV:   8    -0.627543793234E+03    0.32858E-04   -0.21109E-03 30636   0.113E-01    0.150E-01
DAV:   9    -0.627543725738E+03    0.67497E-04   -0.75564E-04 27420   0.696E-02
   3 F= -.62754373E+03 E0= -.62754373E+03  d E =-.661474E+00  mag=    19.9907
       N       E                     dE             d eps       ncg     rms          rms(c)
DAV:   1    -0.627464555382E+03    0.79238E-01   -0.99730E+01 21504   0.196E+01    0.482E+00
DAV:   2    -0.627747564233E+03   -0.28301E+00   -0.45265E+00 29484   0.601E+00    0.544E+00
DAV:   3    -0.627723165303E+03    0.24399E-01   -0.58438E-01 28764   0.204E+00    0.368E+00
DAV:   4    -0.627700692692E+03    0.22473E-01   -0.93097E-02 29856   0.637E-01    0.284E+00
DAV:   5    -0.627678789841E+03    0.21903E-01   -0.71784E-02 29412   0.822E-01    0.109E+00
DAV:   6    -0.627677119905E+03    0.16699E-02   -0.75663E-02 30384   0.720E-01    0.577E-01
DAV:   7    -0.627676969219E+03    0.15069E-03   -0.33207E-02 27624   0.376E-01    0.298E-01
DAV:   8    -0.627676762355E+03    0.20686E-03   -0.28069E-03 30492   0.141E-01    0.209E-01
DAV:   9    -0.627676565407E+03    0.19695E-03   -0.13112E-03 29160   0.104E-01    0.127E-01
DAV:  10    -0.627676527041E+03    0.38366E-04   -0.74854E-04 25524   0.751E-02
   4 F= -.62767653E+03 E0= -.62767653E+03  d E =-.132801E+00  mag=    19.9938
       N       E                     dE             d eps       ncg     rms          rms(c)
DAV:   1    -0.627770854096E+03   -0.94289E-01   -0.14633E+00 21984   0.239E+00    0.873E-01
DAV:   2    -0.627771464639E+03   -0.61054E-03   -0.11509E-01 29148   0.899E-01    0.108E+00
DAV:   3    -0.627769618194E+03    0.18464E-02   -0.16379E-02 27648   0.301E-01    0.780E-01
DAV:   4    -0.627768393082E+03    0.12251E-02   -0.10688E-02 29304   0.206E-01    0.531E-01
DAV:   5    -0.627767887107E+03    0.50597E-03   -0.22855E-03 28896   0.160E-01    0.238E-01
DAV:   6    -0.627767788959E+03    0.98149E-04   -0.14917E-03 31272   0.109E-01    0.136E-01
DAV:   7    -0.627767785801E+03    0.31577E-05   -0.51626E-04 23208   0.445E-02
   5 F= -.62776779E+03 E0= -.62776779E+03  d E =-.912588E-01  mag=    19.9953
       N       E                     dE             d eps       ncg     rms          rms(c)
DAV:   1    -0.627846163830E+03   -0.78375E-01   -0.31363E+01 21504   0.112E+01    0.181E+00
DAV:   2    -0.627916691386E+03   -0.70528E-01   -0.10374E+00 28920   0.249E+00    0.180E+00
DAV:   3    -0.627914109492E+03    0.25819E-02   -0.10538E-01 30984   0.751E-01    0.122E+00
DAV:   4    -0.627907709416E+03    0.64001E-02   -0.24265E-02 30936   0.348E-01    0.825E-01
DAV:   5    -0.627904549640E+03    0.31598E-02   -0.12642E-02 27756   0.285E-01    0.344E-01
DAV:   6    -0.627904291879E+03    0.25776E-03   -0.62946E-03 31632   0.208E-01    0.171E-01
DAV:   7    -0.627904345980E+03   -0.54102E-04   -0.24049E-03 27180   0.942E-02    0.893E-02
DAV:   8    -0.627904305635E+03    0.40345E-04   -0.18103E-04 14688   0.436E-02
   6 F= -.62790431E+03 E0= -.62790431E+03  d E =-.136520E+00  mag=    19.9965
       N       E                     dE             d eps       ncg     rms          rms(c)
DAV:   1    -0.627662445540E+03    0.24190E+00   -0.92163E+01 21504   0.188E+01    0.456E+00
DAV:   2    -0.627863706739E+03   -0.20126E+00   -0.47162E+00 29064   0.545E+00    0.596E+00
DAV:   3    -0.627786816628E+03    0.76890E-01   -0.63402E-01 29640   0.169E+00    0.405E+00
DAV:   4    -0.627762223792E+03    0.24593E-01   -0.46100E-01 32136   0.152E+00    0.314E+00
DAV:   5    -0.627735780769E+03    0.26443E-01   -0.16387E-01 29988   0.102E+00    0.153E+00
DAV:   6    -0.627723853437E+03    0.11927E-01   -0.89057E-02 31716   0.654E-01    0.825E-01
DAV:   7    -0.627721408707E+03    0.24447E-02   -0.26927E-02 32052   0.395E-01    0.452E-01
DAV:   8    -0.627720858945E+03    0.54976E-03   -0.48782E-03 30780   0.209E-01    0.218E-01
DAV:   9    -0.627720662372E+03    0.19657E-03   -0.20832E-03 31836   0.117E-01    0.147E-01
DAV:  10    -0.627720540914E+03    0.12146E-03   -0.58557E-04 24900   0.653E-02    0.857E-02
DAV:  11    -0.627720508687E+03    0.32227E-04   -0.38009E-04 20700   0.426E-02
   7 F= -.62772051E+03 E0= -.62772051E+03  d E =0.183797E+00  mag=    19.9977
       N       E                     dE             d eps       ncg     rms          rms(c)
DAV:   1    -0.627977522838E+03   -0.25698E+00   -0.43707E+01 21504   0.121E+01    0.337E+00
DAV:   2    -0.628104761022E+03   -0.12724E+00   -0.30291E+00 30216   0.445E+00    0.497E+00
DAV:   3    -0.628070503265E+03    0.34258E-01   -0.35843E-01 27600   0.125E+00    0.398E+00
DAV:   4    -0.628021904104E+03    0.48599E-01   -0.23221E-01 30096   0.102E+00    0.320E+00
DAV:   5    -0.628028407715E+03   -0.65036E-02   -0.28472E-01 27528   0.106E+00    0.191E+00
DAV:   6    -0.628010123672E+03    0.18284E-01   -0.87487E-02 31800   0.801E-01    0.151E+00
DAV:   7    -0.627997263524E+03    0.12860E-01   -0.89427E-02 27396   0.595E-01    0.805E-01
DAV:   8    -0.627997967146E+03   -0.70362E-03   -0.10981E-02 30816   0.287E-01    0.475E-01
DAV:   9    -0.627996322253E+03    0.16449E-02   -0.50312E-03 31344   0.165E-01    0.294E-01
DAV:  10    -0.627995869501E+03    0.45275E-03   -0.27564E-03 28920   0.998E-02    0.149E-01
DAV:  11    -0.627995806264E+03    0.63237E-04   -0.54059E-04 22236   0.520E-02
   8 F= -.62799581E+03 E0= -.62799581E+03  d E =-.275298E+00  mag=    19.9984
       N       E                     dE             d eps       ncg     rms          rms(c)
DAV:   1    -0.627983739294E+03    0.12130E-01   -0.16320E+01 21504   0.772E+00    0.182E+00
DAV:   2    -0.628031842477E+03   -0.48103E-01   -0.85730E-01 29376   0.238E+00    0.248E+00
DAV:   3    -0.628026381879E+03    0.54606E-02   -0.10726E-01 28416   0.723E-01    0.188E+00
DAV:   4    -0.628018261396E+03    0.81205E-02   -0.29563E-02 29016   0.368E-01    0.153E+00
DAV:   5    -0.628016216631E+03    0.20448E-02   -0.39447E-02 28620   0.469E-01    0.765E-01
DAV:   6    -0.628014319272E+03    0.18974E-02   -0.24834E-02 31476   0.403E-01    0.505E-01
DAV:   7    -0.628013489021E+03    0.83025E-03   -0.12654E-02 27372   0.233E-01    0.260E-01
DAV:   8    -0.628013529691E+03   -0.40671E-04   -0.17128E-03 30084   0.104E-01    0.185E-01
DAV:   9    -0.628013490965E+03    0.38726E-04   -0.40024E-04 20508   0.579E-02
   9 F= -.62801349E+03 E0= -.62801349E+03  d E =-.176847E-01  mag=    19.9989
       N       E                     dE             d eps       ncg     rms          rms(c)
DAV:   1    -0.628043520007E+03   -0.29990E-01   -0.28623E+00 21504   0.321E+00    0.125E+00
DAV:   2    -0.628045269137E+03   -0.17491E-02   -0.23011E-01 29328   0.127E+00    0.153E+00
DAV:   3    -0.628040697797E+03    0.45713E-02   -0.33297E-02 28056   0.431E-01    0.106E+00
DAV:   4    -0.628038333164E+03    0.23646E-02   -0.20763E-02 28980   0.272E-01    0.704E-01
DAV:   5    -0.628037344783E+03    0.98838E-03   -0.35584E-03 28776   0.211E-01    0.292E-01
DAV:   6    -0.628037250157E+03    0.94626E-04   -0.32307E-03 31260   0.145E-01    0.137E-01
DAV:   7    -0.628037254509E+03   -0.43522E-05   -0.91274E-04 26256   0.594E-02
  10 F= -.62803725E+03 E0= -.62803725E+03  d E =-.237635E-01  mag=    19.9992
       N       E                     dE             d eps       ncg     rms          rms(c)
DAV:   1    -0.627998716699E+03    0.38533E-01   -0.15694E+01 21504   0.750E+00    0.170E+00
DAV:   2    -0.628042484492E+03   -0.43768E-01   -0.90040E-01 29256   0.255E+00    0.269E+00
DAV:   3    -0.628041012234E+03    0.14723E-02   -0.11969E-01 27168   0.718E-01    0.225E+00
DAV:   4    -0.628029826522E+03    0.11186E-01   -0.21912E-02 30108   0.336E-01    0.201E+00
DAV:   5    -0.628027947648E+03    0.18789E-02   -0.10318E-01 27336   0.645E-01    0.137E+00
DAV:   6    -0.628026555255E+03    0.13924E-02   -0.56925E-02 31140   0.604E-01    0.120E+00
DAV:   7    -0.628019536799E+03    0.70185E-02   -0.38436E-02 29184   0.424E-01    0.750E-01
DAV:   8    -0.628019865134E+03   -0.32834E-03   -0.53628E-03 28956   0.186E-01    0.509E-01
DAV:   9    -0.628018800519E+03    0.10646E-02   -0.23327E-03 28416   0.119E-01    0.318E-01
DAV:  10    -0.628018400597E+03    0.39992E-03   -0.16142E-03 28068   0.817E-02    0.216E-01
DAV:  11    -0.628018384505E+03    0.16093E-04   -0.16692E-04 14760   0.345E-02
  11 F= -.62801838E+03 E0= -.62801838E+03  d E =0.188700E-01  mag=    19.9994
       N       E                     dE             d eps       ncg     rms          rms(c)
DAV:   1    -0.628069235268E+03   -0.50835E-01   -0.62783E+00 21504   0.459E+00    0.130E+00
DAV:   2    -0.628085305582E+03   -0.16070E-01   -0.39367E-01 29520   0.172E+00    0.191E+00
DAV:   3    -0.628083350811E+03    0.19548E-02   -0.53566E-02 27948   0.490E-01    0.156E+00
DAV:   4    -0.628078466390E+03    0.48844E-02   -0.11010E-02 29280   0.222E-01    0.136E+00
DAV:   5    -0.628077254148E+03    0.12122E-02   -0.40618E-02 30240   0.428E-01    0.784E-01
DAV:   6    -0.628075361210E+03    0.18929E-02   -0.25394E-02 31308   0.389E-01    0.615E-01
DAV:   7    -0.628074154521E+03    0.12067E-02   -0.10679E-02 30048   0.228E-01    0.411E-01
DAV:   8    -0.628074133562E+03    0.20959E-04   -0.12575E-03 28128   0.855E-02    0.287E-01
DAV:   9    -0.628073966402E+03    0.16716E-03   -0.42707E-04 21612   0.676E-02    0.184E-01
DAV:  10    -0.628073806190E+03    0.16021E-03   -0.89784E-04 26232   0.605E-02    0.913E-02
DAV:  11    -0.628073789431E+03    0.16759E-04   -0.10357E-04 13164   0.306E-02
  12 F= -.62807379E+03 E0= -.62807379E+03  d E =-.554049E-01  mag=    19.9996
       N       E                     dE             d eps       ncg     rms          rms(c)
DAV:   1    -0.628077814748E+03   -0.40086E-02   -0.48356E+00 21504   0.432E+00    0.115E+00
DAV:   2    -0.628085864625E+03   -0.80499E-02   -0.23625E-01 29568   0.126E+00    0.129E+00
DAV:   3    -0.628082582797E+03    0.32818E-02   -0.34599E-02 29556   0.446E-01    0.802E-01
DAV:   4    -0.628081162130E+03    0.14207E-02   -0.10651E-02 29808   0.211E-01    0.554E-01
DAV:   5    -0.628080577889E+03    0.58424E-03   -0.25809E-03 29376   0.162E-01    0.239E-01
DAV:   6    -0.628080509061E+03    0.68828E-04   -0.20764E-03 31752   0.122E-01    0.857E-02
DAV:   7    -0.628080517835E+03   -0.87742E-05   -0.65212E-04 24432   0.539E-02
  13 F= -.62808052E+03 E0= -.62808052E+03  d E =-.672840E-02  mag=    19.9997
       N       E                     dE             d eps       ncg     rms          rms(c)
DAV:   1    -0.628095577007E+03   -0.15068E-01   -0.16736E+00 21504   0.249E+00    0.793E-01
DAV:   2    -0.628097968034E+03   -0.23910E-02   -0.11033E-01 29112   0.893E-01    0.957E-01
DAV:   3    -0.628096139946E+03    0.18281E-02   -0.15342E-02 28404   0.303E-01    0.656E-01
DAV:   4    -0.628095116287E+03    0.10237E-02   -0.59144E-03 29076   0.154E-01    0.467E-01
DAV:   5    -0.628094720517E+03    0.39577E-03   -0.14435E-03 28008   0.133E-01    0.196E-01
DAV:   6    -0.628094691820E+03    0.28697E-04   -0.15511E-03 31080   0.103E-01    0.797E-02
DAV:   7    -0.628094694170E+03   -0.23503E-05   -0.58553E-04 23832   0.484E-02
  14 F= -.62809469E+03 E0= -.62809469E+03  d E =-.141763E-01  mag=    19.9998
       N       E                     dE             d eps       ncg     rms          rms(c)
DAV:   1    -0.628099915470E+03   -0.52237E-02   -0.19512E+00 21504   0.276E+00    0.315E-01
DAV:   2    -0.628104799792E+03   -0.48843E-02   -0.54702E-02 26112   0.486E-01    0.236E-01
DAV:   3    -0.628104796215E+03    0.35766E-05   -0.29654E-03 29772   0.115E-01    0.144E-01
DAV:   4    -0.628104619721E+03    0.17649E-03   -0.70759E-04 25608   0.758E-02    0.985E-02
DAV:   5    -0.628104598639E+03    0.21082E-04   -0.60162E-04 24156   0.628E-02
  15 F= -.62810460E+03 E0= -.62810460E+03  d E =-.990447E-02  mag=    19.9998
       N       E                     dE             d eps       ncg     rms          rms(c)
DAV:   1    -0.628108425745E+03   -0.38060E-02   -0.17410E+00 21516   0.261E+00    0.357E-01
DAV:   2    -0.628112497302E+03   -0.40716E-02   -0.55815E-02 27240   0.529E-01    0.351E-01
DAV:   3    -0.628112363387E+03    0.13391E-03   -0.45082E-03 30372   0.157E-01    0.199E-01
DAV:   4    -0.628112124384E+03    0.23900E-03   -0.13279E-03 28956   0.100E-01    0.157E-01
DAV:   5    -0.628112079138E+03    0.45246E-04   -0.64687E-04 25104   0.764E-02
  16 F= -.62811208E+03 E0= -.62811208E+03  d E =-.748050E-02  mag=    19.9998
       N       E                     dE             d eps       ncg     rms          rms(c)
DAV:   1    -0.628113675548E+03   -0.15512E-02   -0.20728E-01 21504   0.871E-01    0.336E-01
DAV:   2    -0.628113754501E+03   -0.78953E-04   -0.16047E-02 29568   0.355E-01    0.405E-01
DAV:   3    -0.628113476795E+03    0.27771E-03   -0.29606E-03 28380   0.125E-01    0.275E-01
DAV:   4    -0.628113298419E+03    0.17838E-03   -0.13158E-03 26304   0.709E-02    0.190E-01
DAV:   5    -0.628113221567E+03    0.76852E-04   -0.22550E-04 18516   0.577E-02
  17 F= -.62811322E+03 E0= -.62811322E+03  d E =-.114243E-02  mag=    19.9999
       N       E                     dE             d eps       ncg     rms          rms(c)
DAV:   1    -0.628117190011E+03   -0.38916E-02   -0.63020E-01 21504   0.157E+00    0.326E-01
DAV:   2    -0.628118547631E+03   -0.13576E-02   -0.28994E-02 28536   0.437E-01    0.406E-01
DAV:   3    -0.628118221754E+03    0.32588E-03   -0.28388E-03 28044   0.135E-01    0.272E-01
DAV:   4    -0.628118019613E+03    0.20214E-03   -0.89404E-04 24888   0.728E-02    0.204E-01
DAV:   5    -0.628117943239E+03    0.76374E-04   -0.29877E-04 20088   0.656E-02
  18 F= -.62811794E+03 E0= -.62811794E+03  d E =-.472167E-02  mag=    19.9999
       N       E                     dE             d eps       ncg     rms          rms(c)
DAV:   1    -0.628121367641E+03   -0.33480E-02   -0.10872E+00 21504   0.206E+00    0.232E-01
DAV:   2    -0.628124056129E+03   -0.26885E-02   -0.29171E-02 24312   0.350E-01    0.148E-01
DAV:   3    -0.628124074940E+03   -0.18811E-04   -0.13227E-03 29304   0.754E-02    0.105E-01
DAV:   4    -0.628124004820E+03    0.70121E-04   -0.11702E-04 13248   0.348E-02
  19 F= -.62812400E+03 E0= -.62812400E+03  d E =-.606158E-02  mag=    19.9999
       N       E                     dE             d eps       ncg     rms          rms(c)
DAV:   1    -0.628127218820E+03   -0.31439E-02   -0.59792E-01 21504   0.153E+00    0.321E-01
DAV:   2    -0.628128006445E+03   -0.78762E-03   -0.21265E-02 29184   0.352E-01    0.296E-01
DAV:   3    -0.628127843626E+03    0.16282E-03   -0.29221E-03 29592   0.133E-01    0.160E-01
DAV:   4    -0.628127758143E+03    0.85483E-04   -0.46159E-04 22344   0.545E-02
  20 F= -.62812776E+03 E0= -.62812776E+03  d E =-.375332E-02  mag=    19.9999
       N       E                     dE             d eps       ncg     rms          rms(c)
DAV:   1    -0.628130144860E+03   -0.23012E-02   -0.10560E+00 21504   0.203E+00    0.256E-01
DAV:   2    -0.628132944610E+03   -0.27997E-02   -0.36554E-02 27432   0.456E-01    0.347E-01
DAV:   3    -0.628132752079E+03    0.19253E-03   -0.24522E-03 27552   0.124E-01    0.226E-01
DAV:   4    -0.628132571828E+03    0.18025E-03   -0.55035E-04 22524   0.591E-02    0.184E-01
DAV:   5    -0.628132489506E+03    0.82322E-04   -0.33386E-04 21036   0.627E-02
  21 F= -.62813249E+03 E0= -.62813249E+03  d E =-.473136E-02  mag=    19.9999
       N       E                     dE             d eps       ncg     rms          rms(c)
DAV:   1    -0.628134764148E+03   -0.21923E-02   -0.25769E-01 21600   0.995E-01    0.142E-01
DAV:   2    -0.628135320376E+03   -0.55623E-03   -0.74337E-03 28044   0.194E-01    0.134E-01
DAV:   3    -0.628135307723E+03    0.12653E-04   -0.68591E-04 24480   0.582E-02
  22 F= -.62813531E+03 E0= -.62813531E+03  d E =-.281822E-02  mag=    19.9999
       N       E                     dE             d eps       ncg     rms          rms(c)
DAV:   1    -0.628135621385E+03   -0.30101E-03   -0.21426E+00 21504   0.289E+00    0.391E-01
DAV:   2    -0.628141458653E+03   -0.58373E-02   -0.62107E-02 26832   0.558E-01    0.358E-01
DAV:   3    -0.628141460780E+03   -0.21275E-05   -0.41871E-03 30780   0.159E-01    0.207E-01
DAV:   4    -0.628141261569E+03    0.19921E-03   -0.65281E-04 24660   0.654E-02    0.137E-01
DAV:   5    -0.628141147061E+03    0.11451E-03   -0.53537E-04 23316   0.772E-02    0.596E-02
DAV:   6    -0.628141164348E+03   -0.17287E-04   -0.45279E-04 22848   0.483E-02
  23 F= -.62814116E+03 E0= -.62814116E+03  d E =-.585663E-02  mag=    20.0000
       N       E                     dE             d eps       ncg     rms          rms(c)
DAV:   1    -0.628143432412E+03   -0.22854E-02   -0.93651E-01 21504   0.190E+00    0.248E-01
DAV:   2    -0.628145710454E+03   -0.22780E-02   -0.28560E-02 27396   0.386E-01    0.254E-01
DAV:   3    -0.628145682463E+03    0.27991E-04   -0.26232E-03 30720   0.116E-01    0.162E-01
DAV:   4    -0.628145559311E+03    0.12315E-03   -0.52005E-04 23424   0.596E-02    0.126E-01
DAV:   5    -0.628145520846E+03    0.38464E-04   -0.35284E-04 19584   0.569E-02
  24 F= -.62814552E+03 E0= -.62814552E+03  d E =-.435650E-02  mag=    20.0000
       N       E                     dE             d eps       ncg     rms          rms(c)
DAV:   1    -0.628130874418E+03    0.14685E-01   -0.29236E+00 21504   0.338E+00    0.344E-01
DAV:   2    -0.628138728569E+03   -0.78542E-02   -0.82975E-02 25692   0.622E-01    0.323E-01
DAV:   3    -0.628138681327E+03    0.47243E-04   -0.35285E-03 29880   0.139E-01    0.188E-01
DAV:   4    -0.628138427712E+03    0.25361E-03   -0.61465E-04 24840   0.770E-02    0.155E-01
DAV:   5    -0.628138302101E+03    0.12561E-03   -0.72934E-04 25200   0.878E-02    0.655E-02
DAV:   6    -0.628138313440E+03   -0.11339E-04   -0.45945E-04 22404   0.486E-02
  25 F= -.62813831E+03 E0= -.62813831E+03  d E =0.720741E-02  mag=    20.0000
       N       E                     dE             d eps       ncg     rms          rms(c)
DAV:   1    -0.628138951809E+03   -0.64971E-03   -0.25832E+00 21504   0.318E+00    0.314E-01
DAV:   2    -0.628145581549E+03   -0.66297E-02   -0.70732E-02 25332   0.567E-01    0.255E-01
DAV:   3    -0.628145581096E+03    0.45272E-06   -0.32554E-03 31224   0.127E-01    0.157E-01
DAV:   4    -0.628145390354E+03    0.19074E-03   -0.43618E-04 22104   0.611E-02    0.116E-01
DAV:   5    -0.628145249594E+03    0.14076E-03   -0.52563E-04 23688   0.861E-02    0.477E-02
DAV:   6    -0.628145280023E+03   -0.30429E-04   -0.50843E-04 23376   0.482E-02
  26 F= -.62814528E+03 E0= -.62814528E+03  d E =-.696658E-02  mag=    20.0000
       N       E                     dE             d eps       ncg     rms          rms(c)
DAV:   1    -0.628146547532E+03   -0.12979E-02   -0.18030E-01 21552   0.836E-01    0.137E-01
DAV:   2    -0.628147020320E+03   -0.47279E-03   -0.51992E-03 26028   0.159E-01    0.874E-02
DAV:   3    -0.628147043788E+03   -0.23468E-04   -0.34604E-04 18696   0.487E-02
  27 F= -.62814704E+03 E0= -.62814704E+03  d E =-.176376E-02  mag=    20.0000
       N       E                     dE             d eps       ncg     rms          rms(c)
DAV:   1    -0.628147582165E+03   -0.56184E-03   -0.23360E-02 21720   0.302E-01    0.510E-02
DAV:   2    -0.628147624208E+03   -0.42043E-04   -0.62185E-04 19716   0.568E-02
  28 F= -.62814762E+03 E0= -.62814762E+03  d E =-.580420E-03  mag=    20.0000
       N       E                     dE             d eps       ncg     rms          rms(c)
DAV:   1    -0.628149054195E+03   -0.14720E-02   -0.28965E-01 21504   0.106E+00    0.135E-01
DAV:   2    -0.628149713454E+03   -0.65926E-03   -0.78781E-03 26664   0.189E-01    0.112E-01
DAV:   3    -0.628149690620E+03    0.22835E-04   -0.48470E-04 22272   0.513E-02
  29 F= -.62814969E+03 E0= -.62814969E+03  d E =-.206641E-02  mag=    20.0000
       N       E                     dE             d eps       ncg     rms          rms(c)
DAV:   1    -0.628150839483E+03   -0.11260E-02   -0.26548E-01 21504   0.101E+00    0.133E-01
DAV:   2    -0.628151505761E+03   -0.66628E-03   -0.79316E-03 26916   0.201E-01    0.134E-01
DAV:   3    -0.628151475277E+03    0.30485E-04   -0.50503E-04 22176   0.565E-02
  30 F= -.62815148E+03 E0= -.62815148E+03  d E =-.178466E-02  mag=    20.0000
       N       E                     dE             d eps       ncg     rms          rms(c)
DAV:   1    -0.628152652330E+03   -0.11466E-02   -0.15658E-01 21528   0.785E-01    0.132E-01
DAV:   2    -0.628152853030E+03   -0.20070E-03   -0.43770E-03 26472   0.142E-01    0.755E-02
DAV:   3    -0.628152813086E+03    0.39944E-04   -0.20678E-04 17424   0.498E-02
  31 F= -.62815281E+03 E0= -.62815281E+03  d E =-.133781E-02  mag=    20.0000
       N       E                     dE             d eps       ncg     rms          rms(c)
DAV:   1    -0.628154270714E+03   -0.14177E-02   -0.34025E-01 21504   0.115E+00    0.134E-01
DAV:   2    -0.628155017770E+03   -0.74706E-03   -0.92306E-03 26184   0.205E-01    0.114E-01
DAV:   3    -0.628154994706E+03    0.23064E-04   -0.51132E-04 22416   0.517E-02
  32 F= -.62815499E+03 E0= -.62815499E+03  d E =-.218162E-02  mag=    20.0000
       N       E                     dE             d eps       ncg     rms          rms(c)
DAV:   1    -0.628152288613E+03    0.27292E-02   -0.36113E+00 21504   0.374E+00    0.426E-01
DAV:   2    -0.628161320825E+03   -0.90322E-02   -0.94965E-02 23556   0.639E-01    0.260E-01
DAV:   3    -0.628161396861E+03   -0.76036E-04   -0.42424E-03 31248   0.135E-01    0.181E-01
DAV:   4    -0.628161160374E+03    0.23649E-03   -0.36749E-04 19884   0.562E-02    0.115E-01
DAV:   5    -0.628160977234E+03    0.18314E-03   -0.88983E-04 27732   0.101E-01    0.488E-02
DAV:   6    -0.628161004491E+03   -0.27257E-04   -0.45161E-04 21588   0.488E-02
  33 F= -.62816100E+03 E0= -.62816100E+03  d E =-.600978E-02  mag=    20.0000
       N       E                     dE             d eps       ncg     rms          rms(c)
DAV:   1    -0.628156834324E+03    0.41429E-02   -0.74724E-01 21504   0.171E+00    0.192E-01
DAV:   2    -0.628158607504E+03   -0.17732E-02   -0.21557E-02 25956   0.322E-01    0.187E-01
DAV:   3    -0.628158545841E+03    0.61663E-04   -0.10100E-03 26172   0.787E-02    0.104E-01
DAV:   4    -0.628158471321E+03    0.74519E-04   -0.10034E-04 12888   0.372E-02
  34 F= -.62815847E+03 E0= -.62815847E+03  d E =0.253317E-02  mag=    20.0000
       N       E                     dE             d eps       ncg     rms          rms(c)
DAV:   1    -0.628155920233E+03    0.26256E-02   -0.28071E+00 21504   0.331E+00    0.351E-01
DAV:   2    -0.628163515874E+03   -0.75956E-02   -0.78149E-02 24096   0.578E-01    0.219E-01
DAV:   3    -0.628163541339E+03   -0.25465E-04   -0.29188E-03 30444   0.119E-01    0.121E-01
DAV:   4    -0.628163345421E+03    0.19592E-03   -0.58160E-04 24912   0.754E-02    0.884E-02
DAV:   5    -0.628163287418E+03    0.58003E-04   -0.53854E-04 23328   0.681E-02
  35 F= -.62816329E+03 E0= -.62816329E+03  d E =-.481610E-02  mag=    20.0000
       N       E                     dE             d eps       ncg     rms          rms(c)
DAV:   1    -0.628162805720E+03    0.53970E-03   -0.86375E-02 21612   0.589E-01    0.118E-01
DAV:   2    -0.628162844588E+03   -0.38867E-04   -0.31441E-03 27252   0.150E-01    0.108E-01
DAV:   3    -0.628162840268E+03    0.43198E-05   -0.52872E-04 23688   0.533E-02
  36 F= -.62816284E+03 E0= -.62816284E+03  d E =0.447150E-03  mag=    20.0000
       N       E                     dE             d eps       ncg     rms          rms(c)
DAV:   1    -0.628162925929E+03   -0.81341E-04   -0.16838E-03 21804   0.861E-02    0.574E-02
DAV:   2    -0.628162926940E+03   -0.10108E-05   -0.13468E-04 14112   0.343E-02
  37 F= -.62816293E+03 E0= -.62816293E+03  d E =-.866720E-04  mag=    20.0000
       N       E                     dE             d eps       ncg     rms          rms(c)
DAV:   1    -0.628163761776E+03   -0.83585E-03   -0.33070E-01 21504   0.114E+00    0.168E-01
DAV:   2    -0.628164397315E+03   -0.63554E-03   -0.96035E-03 25944   0.221E-01    0.120E-01
DAV:   3    -0.628164381195E+03    0.16120E-04   -0.68982E-04 25824   0.708E-02
  38 F= -.62816438E+03 E0= -.62816438E+03  d E =-.145425E-02  mag=    20.0000
       N       E                     dE             d eps       ncg     rms          rms(c)
DAV:   1    -0.628164663118E+03   -0.26580E-03   -0.52018E-02 21624   0.450E-01    0.849E-02
DAV:   2    -0.628164802515E+03   -0.13940E-03   -0.19001E-03 29400   0.110E-01    0.944E-02
DAV:   3    -0.628164792416E+03    0.10099E-04   -0.13789E-04 14268   0.362E-02
  39 F= -.62816479E+03 E0= -.62816479E+03  d E =-.411221E-03  mag=    20.0000
       N       E                     dE             d eps       ncg     rms          rms(c)
DAV:   1    -0.628164892636E+03   -0.90122E-04   -0.22869E-03 20748   0.945E-02    0.412E-02
DAV:   2    -0.628164890756E+03    0.18804E-05   -0.14458E-04 12744   0.294E-02
  40 F= -.62816489E+03 E0= -.62816489E+03  d E =-.983400E-04  mag=    20.0000
       N       E                     dE             d eps       ncg     rms          rms(c)
DAV:   1    -0.628165799701E+03   -0.90706E-03   -0.26087E-01 21504   0.101E+00    0.176E-01
DAV:   2    -0.628166176143E+03   -0.37644E-03   -0.82583E-03 28764   0.211E-01    0.155E-01
DAV:   3    -0.628166136309E+03    0.39834E-04   -0.70653E-04 25692   0.671E-02
  41 F= -.62816614E+03 E0= -.62816614E+03  d E =-.124555E-02  mag=    20.0000
       N       E                     dE             d eps       ncg     rms          rms(c)
DAV:   1    -0.628165969555E+03    0.20659E-03   -0.25918E-02 21648   0.320E-01    0.104E-01
DAV:   2    -0.628165988741E+03   -0.19186E-04   -0.18352E-03 29340   0.115E-01    0.121E-01
DAV:   3    -0.628165946799E+03    0.41942E-04   -0.18017E-04 15696   0.388E-02
  42 F= -.62816595E+03 E0= -.62816595E+03  d E =0.189510E-03  mag=    20.0000
       N       E                     dE             d eps       ncg     rms          rms(c)
DAV:   1    -0.628166739385E+03   -0.75064E-03   -0.47877E-01 21504   0.137E+00    0.242E-01
DAV:   2    -0.628167432004E+03   -0.69262E-03   -0.17028E-02 27144   0.303E-01    0.217E-01
DAV:   3    -0.628167334943E+03    0.97061E-04   -0.16269E-03 30324   0.101E-01    0.112E-01
DAV:   4    -0.628167239105E+03    0.95839E-04   -0.54101E-04 23976   0.629E-02
  43 F= -.62816724E+03 E0= -.62816724E+03  d E =-.129231E-02  mag=    20.0000
       N       E                     dE             d eps       ncg     rms          rms(c)
DAV:   1    -0.628168078092E+03   -0.74315E-03   -0.90611E-02 21600   0.585E-01    0.100E-01
DAV:   2    -0.628168275553E+03   -0.19746E-03   -0.36685E-03 29808   0.154E-01    0.139E-01
DAV:   3    -0.628168232151E+03    0.43402E-04   -0.29340E-04 17868   0.448E-02
  44 F= -.62816823E+03 E0= -.62816823E+03  d E =-.993046E-03  mag=    20.0000
       N       E                     dE             d eps       ncg     rms          rms(c)
DAV:   1    -0.628168819420E+03   -0.54387E-03   -0.13394E-01 21528   0.722E-01    0.141E-01
DAV:   2    -0.628169081986E+03   -0.26257E-03   -0.40710E-03 28116   0.143E-01    0.900E-02
DAV:   3    -0.628169055253E+03    0.26733E-04   -0.26183E-04 18372   0.485E-02
  45 F= -.62816906E+03 E0= -.62816906E+03  d E =-.823102E-03  mag=    20.0000
       N       E                     dE             d eps       ncg     rms          rms(c)
DAV:   1    -0.628169474224E+03   -0.39224E-03   -0.53762E-02 21600   0.456E-01    0.740E-02
DAV:   2    -0.628169591518E+03   -0.11729E-03   -0.13696E-03 23856   0.782E-02    0.433E-02
DAV:   3    -0.628169583383E+03    0.81344E-05   -0.43387E-05 11928   0.177E-02
  46 F= -.62816958E+03 E0= -.62816958E+03  d E =-.528131E-03  mag=    20.0000
       N       E                     dE             d eps       ncg     rms          rms(c)
DAV:   1    -0.628169134829E+03    0.45669E-03   -0.27189E-02 21624   0.328E-01    0.702E-02
DAV:   2    -0.628169191380E+03   -0.56551E-04   -0.89826E-04 24084   0.674E-02
  47 F= -.62816919E+03 E0= -.62816919E+03  d E =0.392003E-03  mag=    20.0000
       N       E                     dE             d eps       ncg     rms          rms(c)
DAV:   1    -0.628169250644E+03   -0.11581E-03   -0.81448E-03 21708   0.180E-01    0.639E-02
DAV:   2    -0.628169251725E+03   -0.10819E-05   -0.53595E-04 24192   0.623E-02
  48 F= -.62816925E+03 E0= -.62816925E+03  d E =-.603450E-04  mag=    20.0000
       N       E                     dE             d eps       ncg     rms          rms(c)
DAV:   1    -0.628169880274E+03   -0.62963E-03   -0.27604E-01 21528   0.104E+00    0.161E-01
DAV:   2    -0.628170350047E+03   -0.46977E-03   -0.83565E-03 25872   0.196E-01    0.983E-02
DAV:   3    -0.628170321667E+03    0.28380E-04   -0.43389E-04 21996   0.627E-02
  49 F= -.62817032E+03 E0= -.62817032E+03  d E =-.106994E-02  mag=    20.0000
       N       E                     dE             d eps       ncg     rms          rms(c)
DAV:   1    -0.628170979756E+03   -0.62971E-03   -0.13560E-01 21504   0.720E-01    0.101E-01
DAV:   2    -0.628171297849E+03   -0.31809E-03   -0.38532E-03 27540   0.135E-01    0.851E-02
DAV:   3    -0.628171268688E+03    0.29162E-04   -0.19317E-04 14652   0.375E-02
  50 F= -.62817127E+03 E0= -.62817127E+03  d E =-.947021E-03  mag=    20.0000
       N       E                     dE             d eps       ncg     rms          rms(c)
DAV:   1    -0.628170612511E+03    0.68534E-03   -0.12429E+00 21504   0.220E+00    0.302E-01
DAV:   2    -0.628173634521E+03   -0.30220E-02   -0.33070E-02 25164   0.381E-01    0.182E-01
DAV:   3    -0.628173662669E+03   -0.28147E-04   -0.17558E-03 29760   0.959E-02    0.937E-02
DAV:   4    -0.628173540772E+03    0.12190E-03   -0.20522E-04 16896   0.472E-02    0.638E-02
DAV:   5    -0.628173509485E+03    0.31287E-04   -0.40313E-04 18432   0.538E-02
  51 F= -.62817351E+03 E0= -.62817351E+03  d E =-.224080E-02  mag=    20.0000
       N       E                     dE             d eps       ncg     rms          rms(c)
DAV:   1    -0.628173084583E+03    0.45619E-03   -0.77806E-01 21504   0.173E+00    0.235E-01
DAV:   2    -0.628175234806E+03   -0.21502E-02   -0.21901E-02 25908   0.311E-01    0.178E-01
DAV:   3    -0.628175253257E+03   -0.18450E-04   -0.10942E-03 27348   0.782E-02    0.889E-02
DAV:   4    -0.628175180401E+03    0.72856E-04   -0.20900E-04 17160   0.488E-02
  52 F= -.62817518E+03 E0= -.62817518E+03  d E =-.167092E-02  mag=    20.0000
       N       E                     dE             d eps       ncg     rms          rms(c)
DAV:   1    -0.628173590051E+03    0.16632E-02   -0.16675E+00 21504   0.255E+00    0.299E-01
DAV:   2    -0.628177478476E+03   -0.38884E-02   -0.43900E-02 23364   0.432E-01    0.151E-01
DAV:   3    -0.628177511455E+03   -0.32979E-04   -0.19428E-03 30180   0.963E-02    0.959E-02
DAV:   4    -0.628177412514E+03    0.98942E-04   -0.28880E-04 18672   0.486E-02
  53 F= -.62817741E+03 E0= -.62817741E+03  d E =-.223211E-02  mag=    20.0000
       N       E                     dE             d eps       ncg     rms          rms(c)
DAV:   1    -0.628171172869E+03    0.63386E-02   -0.14936E+00 21504   0.241E+00    0.275E-01
DAV:   2    -0.628175439656E+03   -0.42668E-02   -0.41996E-02 23280   0.421E-01    0.155E-01
DAV:   3    -0.628175488721E+03   -0.49065E-04   -0.13804E-03 28896   0.818E-02    0.810E-02
DAV:   4    -0.628175387605E+03    0.10112E-03   -0.17638E-04 15120   0.489E-02    0.636E-02
DAV:   5    -0.628175362605E+03    0.25000E-04   -0.33165E-04 17568   0.479E-02
  54 F= -.62817536E+03 E0= -.62817536E+03  d E =0.204991E-02  mag=    20.0000
       N       E                     dE             d eps       ncg     rms          rms(c)
DAV:   1    -0.628174795846E+03    0.59176E-03   -0.86305E-01 21504   0.183E+00    0.182E-01
DAV:   2    -0.628177026296E+03   -0.22305E-02   -0.22848E-02 23700   0.312E-01    0.109E-01
DAV:   3    -0.628177034073E+03   -0.77767E-05   -0.80761E-04 26436   0.606E-02
  55 F= -.62817703E+03 E0= -.62817703E+03  d E =-.167147E-02  mag=    20.0000
       N       E                     dE             d eps       ncg     rms          rms(c)
DAV:   1    -0.628176874245E+03    0.15205E-03   -0.47883E-03 21216   0.136E-01    0.589E-02
DAV:   2    -0.628176866164E+03    0.80810E-05   -0.18592E-04 16644   0.465E-02
  56 F= -.62817687E+03 E0= -.62817687E+03  d E =0.167909E-03  mag=    20.0000
       N       E                     dE             d eps       ncg     rms          rms(c)
DAV:   1    -0.628176647957E+03    0.22629E-03   -0.17940E-02 21900   0.255E-01    0.805E-02
DAV:   2    -0.628176737972E+03   -0.90016E-04   -0.63795E-04 24204   0.670E-02
  57 F= -.62817674E+03 E0= -.62817674E+03  d E =0.128191E-03  mag=    20.0000
       N       E                     dE             d eps       ncg     rms          rms(c)
DAV:   1    -0.628177044393E+03   -0.39644E-03   -0.12272E-01 21576   0.679E-01    0.188E-01
DAV:   2    -0.628177366957E+03   -0.32256E-03   -0.40821E-03 28752   0.153E-01    0.127E-01
DAV:   3    -0.628177368821E+03   -0.18644E-05   -0.56586E-04 23100   0.632E-02
  58 F= -.62817737E+03 E0= -.62817737E+03  d E =-.630849E-03  mag=    20.0000
       N       E                     dE             d eps       ncg     rms          rms(c)
DAV:   1    -0.628177267339E+03    0.99618E-04   -0.55282E-02 21600   0.437E-01    0.157E-01
DAV:   2    -0.628177550302E+03   -0.28296E-03   -0.18578E-03 27696   0.111E-01    0.107E-01
DAV:   3    -0.628177567211E+03   -0.16910E-04   -0.18124E-04 16584   0.410E-02
  59 F= -.62817757E+03 E0= -.62817757E+03  d E =-.198390E-03  mag=    20.0000
       N       E                     dE             d eps       ncg     rms          rms(c)
DAV:   1    -0.628177732280E+03   -0.18198E-03   -0.99984E-02 21528   0.625E-01    0.108E-01
DAV:   2    -0.628178053216E+03   -0.32094E-03   -0.28003E-03 25188   0.115E-01    0.656E-02
DAV:   3    -0.628178067437E+03   -0.14221E-04   -0.12402E-04 14448   0.350E-02
  60 F= -.62817807E+03 E0= -.62817807E+03  d E =-.500225E-03  mag=    20.0000
       N       E                     dE             d eps       ncg     rms          rms(c)
DAV:   1    -0.628178183524E+03   -0.13031E-03   -0.40053E-02 21624   0.393E-01    0.821E-02
DAV:   2    -0.628178303354E+03   -0.11983E-03   -0.10484E-03 25416   0.808E-02    0.602E-02
DAV:   3    -0.628178309458E+03   -0.61040E-05   -0.79070E-05 12984   0.257E-02
  61 F= -.62817831E+03 E0= -.62817831E+03  d E =-.242022E-03  mag=    20.0000
       N       E                     dE             d eps       ncg     rms          rms(c)
DAV:   1    -0.628178427308E+03   -0.12395E-03   -0.42072E-02 21600   0.404E-01    0.845E-02
DAV:   2    -0.628178543728E+03   -0.11642E-03   -0.11816E-03 26268   0.851E-02    0.639E-02
DAV:   3    -0.628178548664E+03   -0.49362E-05   -0.95584E-05 13944   0.293E-02
  62 F= -.62817855E+03 E0= -.62817855E+03  d E =-.239205E-03  mag=    20.0000
       N       E                     dE             d eps       ncg     rms          rms(c)
DAV:   1    -0.628178770963E+03   -0.22724E-03   -0.33757E-02 21624   0.360E-01    0.566E-02
DAV:   2    -0.628178849567E+03   -0.78604E-04   -0.11360E-03 27912   0.836E-02    0.638E-02
DAV:   3    -0.628178841471E+03    0.80960E-05   -0.10396E-04 12564   0.266E-02
  63 F= -.62817884E+03 E0= -.62817884E+03  d E =-.292807E-03  mag=    20.0000
       N       E                     dE             d eps       ncg     rms          rms(c)
DAV:   1    -0.628179036630E+03   -0.18706E-03   -0.12741E-01 21564   0.702E-01    0.867E-02
DAV:   2    -0.628179360867E+03   -0.32424E-03   -0.39125E-03 28020   0.137E-01    0.926E-02
DAV:   3    -0.628179334853E+03    0.26013E-04   -0.16472E-04 15324   0.360E-02
  64 F= -.62817933E+03 E0= -.62817933E+03  d E =-.493382E-03  mag=    20.0000
       N       E                     dE             d eps       ncg     rms          rms(c)
DAV:   1    -0.628179532450E+03   -0.17158E-03   -0.50635E-02 21600   0.443E-01    0.550E-02
DAV:   2    -0.628179663370E+03   -0.13092E-03   -0.15743E-03 27504   0.886E-02    0.607E-02
DAV:   3    -0.628179647972E+03    0.15398E-04   -0.70204E-05 12780   0.245E-02
  65 F= -.62817965E+03 E0= -.62817965E+03  d E =-.313119E-03  mag=    20.0000
       N       E                     dE             d eps       ncg     rms          rms(c)
DAV:   1    -0.628179250067E+03    0.41330E-03   -0.41415E-02 21600   0.403E-01    0.566E-02
DAV:   2    -0.628179346696E+03   -0.96629E-04   -0.12273E-03 23004   0.733E-02    0.363E-02
DAV:   3    -0.628179346434E+03    0.26198E-06   -0.43121E-05 11892   0.195E-02
  66 F= -.62817935E+03 E0= -.62817935E+03  d E =0.301538E-03  mag=    20.0000
       N       E                     dE             d eps       ncg     rms          rms(c)
DAV:   1    -0.628179076119E+03    0.27058E-03   -0.33560E-02 21576   0.363E-01    0.686E-02
DAV:   2    -0.628179116242E+03   -0.40123E-04   -0.98775E-04 23904   0.725E-02
  67 F= -.62817912E+03 E0= -.62817912E+03  d E =0.230191E-03  mag=    20.0000
       N       E                     dE             d eps       ncg     rms          rms(c)
DAV:   1    -0.628179312842E+03   -0.23672E-03   -0.14950E-01 21552   0.765E-01    0.862E-02
DAV:   2    -0.628179660361E+03   -0.34752E-03   -0.41677E-03 23544   0.135E-01    0.485E-02
DAV:   3    -0.628179653885E+03    0.64760E-05   -0.12570E-04 13812   0.340E-02
  68 F= -.62817965E+03 E0= -.62817965E+03  d E =-.537643E-03  mag=    20.0000
       N       E                     dE             d eps       ncg     rms          rms(c)
DAV:   1    -0.628179622626E+03    0.37735E-04   -0.39946E-04 18804   0.420E-02    0.319E-02
DAV:   2    -0.628179616971E+03    0.56559E-05   -0.30989E-05 12516   0.235E-02
  69 F= -.62817962E+03 E0= -.62817962E+03  d E =0.369149E-04  mag=    20.0000
       N       E                     dE             d eps       ncg     rms          rms(c)
DAV:   1    -0.628179477204E+03    0.14542E-03   -0.19434E-01 21504   0.862E-01    0.153E-01
DAV:   2    -0.628179781858E+03   -0.30465E-03   -0.65007E-03 27468   0.188E-01    0.145E-01
DAV:   3    -0.628179761907E+03    0.19950E-04   -0.66127E-04 24168   0.593E-02
  70 F= -.62817976E+03 E0= -.62817976E+03  d E =-.144937E-03  mag=    20.0000
       N       E                     dE             d eps       ncg     rms          rms(c)
DAV:   1    -0.628180069756E+03   -0.28790E-03   -0.69460E-02 21504   0.499E-01    0.918E-02
DAV:   2    -0.628180346811E+03   -0.27706E-03   -0.37948E-03 29628   0.141E-01    0.138E-01
DAV:   3    -0.628180289422E+03    0.57390E-04   -0.27616E-04 18336   0.425E-02
  71 F= -.62818029E+03 E0= -.62818029E+03  d E =-.527514E-03  mag=    20.0000
       N       E                     dE             d eps       ncg     rms          rms(c)
DAV:   1    -0.628181042690E+03   -0.69588E-03   -0.10659E-01 21840   0.659E-01    0.277E-01
DAV:   2    -0.628180192163E+03    0.85053E-03   -0.61037E-03 30084   0.199E-01    0.185E-01
DAV:   3    -0.628180067629E+03    0.12453E-03   -0.11384E-03 28356   0.104E-01    0.117E-01
DAV:   4    -0.628180020967E+03    0.46663E-04   -0.30189E-04 19908   0.449E-02
  72 F= -.62818002E+03 E0= -.62818002E+03  d E =0.268455E-03  mag=    20.0000
       N       E                     dE             d eps       ncg     rms          rms(c)
DAV:   1    -0.628181374953E+03   -0.13073E-02   -0.87818E-02 21648   0.592E-01    0.253E-01
DAV:   2    -0.628180723322E+03    0.65163E-03   -0.60841E-03 30408   0.204E-01    0.201E-01
DAV:   3    -0.628180613094E+03    0.11023E-03   -0.94217E-04 27060   0.902E-02    0.112E-01
DAV:   4    -0.628180567209E+03    0.45884E-04   -0.37704E-04 20928   0.466E-02
  73 F= -.62818057E+03 E0= -.62818057E+03  d E =-.546243E-03  mag=    20.0000
       N       E                     dE             d eps       ncg     rms          rms(c)
DAV:   1    -0.628180322973E+03    0.29012E-03   -0.51703E-01 21504   0.142E+00    0.227E-01
DAV:   2    -0.628181383796E+03   -0.10608E-02   -0.14567E-02 26064   0.254E-01    0.141E-01
DAV:   3    -0.628181354826E+03    0.28970E-04   -0.96289E-04 27804   0.728E-02
  74 F= -.62818135E+03 E0= -.62818135E+03  d E =-.787616E-03  mag=    20.0000
       N       E                     dE             d eps       ncg     rms          rms(c)
DAV:   1    -0.628181560956E+03   -0.17716E-03   -0.26495E-01 21504   0.101E+00    0.147E-01
DAV:   2    -0.628182062778E+03   -0.50182E-03   -0.71440E-03 25968   0.183E-01    0.106E-01
DAV:   3    -0.628182011292E+03    0.51486E-04   -0.38019E-04 20316   0.518E-02
  75 F= -.62818201E+03 E0= -.62818201E+03  d E =-.656466E-03  mag=    20.0000
       N       E                     dE             d eps       ncg     rms          rms(c)
DAV:   1    -0.628183858502E+03   -0.17957E-02   -0.24516E-01 21828   0.102E+00    0.355E-01
DAV:   2    -0.628182599702E+03    0.12588E-02   -0.14316E-02 31272   0.303E-01    0.291E-01
DAV:   3    -0.628182314823E+03    0.28488E-03   -0.21292E-03 30876   0.128E-01    0.123E-01
DAV:   4    -0.628182209139E+03    0.10568E-03   -0.50492E-04 22884   0.610E-02    0.803E-02
DAV:   5    -0.628182188041E+03    0.21098E-04   -0.15631E-04 14904   0.409E-02
  76 F= -.62818219E+03 E0= -.62818219E+03  d E =-.176749E-03  mag=    20.0000
       N       E                     dE             d eps       ncg     rms          rms(c)
DAV:   1    -0.628182869414E+03   -0.66027E-03   -0.28600E-02 21936   0.341E-01    0.142E-01
DAV:   2    -0.628182645499E+03    0.22391E-03   -0.23168E-03 31272   0.127E-01    0.131E-01
DAV:   3    -0.628182598053E+03    0.47447E-04   -0.37737E-04 21276   0.510E-02
  77 F= -.62818260E+03 E0= -.62818260E+03  d E =-.410012E-03  mag=    20.0000
       N       E                     dE             d eps       ncg     rms          rms(c)
DAV:   1    -0.628183503501E+03   -0.85800E-03   -0.11081E-01 22104   0.687E-01    0.263E-01
DAV:   2    -0.628182895213E+03    0.60829E-03   -0.76496E-03 31188   0.211E-01    0.201E-01
DAV:   3    -0.628182713658E+03    0.18155E-03   -0.13260E-03 30000   0.100E-01    0.921E-02
DAV:   4    -0.628182678612E+03    0.35046E-04   -0.19880E-04 16428   0.400E-02
  78 F= -.62818268E+03 E0= -.62818268E+03  d E =-.805597E-04  mag=    20.0000
       N       E                     dE             d eps       ncg     rms          rms(c)
DAV:   1    -0.628183683348E+03   -0.96969E-03   -0.43957E-02 21852   0.438E-01    0.206E-01
DAV:   2    -0.628183214571E+03    0.46878E-03   -0.48391E-03 31572   0.179E-01    0.183E-01
DAV:   3    -0.628183073910E+03    0.14066E-03   -0.90414E-04 27672   0.783E-02    0.798E-02
DAV:   4    -0.628183050987E+03    0.22923E-04   -0.85188E-05 13620   0.298E-02
  79 F= -.62818305E+03 E0= -.62818305E+03  d E =-.372374E-03  mag=    20.0000
       N       E                     dE             d eps       ncg     rms          rms(c)
DAV:   1    -0.628183143547E+03   -0.69637E-04   -0.60486E-02 21552   0.488E-01    0.690E-02
DAV:   2    -0.628183289164E+03   -0.14562E-03   -0.18806E-03 28428   0.106E-01    0.741E-02
DAV:   3    -0.628183279385E+03    0.97788E-05   -0.10062E-04 13572   0.289E-02
  80 F= -.62818328E+03 E0= -.62818328E+03  d E =-.228399E-03  mag=    20.0000
       N       E                     dE             d eps       ncg     rms          rms(c)
DAV:   1    -0.628183370978E+03   -0.81814E-04   -0.38444E-02 21528   0.383E-01    0.570E-02
DAV:   2    -0.628183482299E+03   -0.11132E-03   -0.14623E-03 28512   0.894E-02    0.728E-02
DAV:   3    -0.628183466639E+03    0.15660E-04   -0.98396E-05 13560   0.265E-02
  81 F= -.62818347E+03 E0= -.62818347E+03  d E =-.187254E-03  mag=    20.0000
       N       E                     dE             d eps       ncg     rms          rms(c)
DAV:   1    -0.628183595177E+03   -0.11288E-03   -0.30797E-02 21576   0.344E-01    0.491E-02
DAV:   2    -0.628183677922E+03   -0.82745E-04   -0.11259E-03 28092   0.752E-02    0.542E-02
DAV:   3    -0.628183661836E+03    0.16085E-04   -0.79327E-05 12804   0.244E-02
  82 F= -.62818366E+03 E0= -.62818366E+03  d E =-.195197E-03  mag=    20.0000
       N       E                     dE             d eps       ncg     rms          rms(c)
DAV:   1    -0.628183747724E+03   -0.69802E-04   -0.11890E-02 21672   0.215E-01    0.324E-02
DAV:   2    -0.628183775190E+03   -0.27466E-04   -0.37226E-04 16308   0.456E-02
  83 F= -.62818378E+03 E0= -.62818378E+03  d E =-.113354E-03  mag=    20.0000
       N       E                     dE             d eps       ncg     rms          rms(c)
DAV:   1    -0.628183888000E+03   -0.14028E-03   -0.52721E-02 21528   0.451E-01    0.560E-02
DAV:   2    -0.628184022463E+03   -0.13446E-03   -0.14062E-03 24948   0.775E-02    0.370E-02
DAV:   3    -0.628184019365E+03    0.30981E-05   -0.46195E-05 11844   0.176E-02
  84 F= -.62818402E+03 E0= -.62818402E+03  d E =-.244175E-03  mag=    20.0000
       N       E                     dE             d eps       ncg     rms          rms(c)
DAV:   1    -0.628183805746E+03    0.21672E-03   -0.20368E-02 21552   0.282E-01    0.372E-02
DAV:   2    -0.628183855044E+03   -0.49298E-04   -0.63120E-04 20376   0.551E-02
  85 F= -.62818386E+03 E0= -.62818386E+03  d E =0.164320E-03  mag=    20.0000
       N       E                     dE             d eps       ncg     rms          rms(c)
DAV:   1    -0.628183976723E+03   -0.17098E-03   -0.11326E-01 21528   0.665E-01    0.860E-02
DAV:   2    -0.628184205376E+03   -0.22865E-03   -0.34317E-03 25920   0.127E-01    0.690E-02
DAV:   3    -0.628184193310E+03    0.12066E-04   -0.14891E-04 13440   0.352E-02
  86 F= -.62818419E+03 E0= -.62818419E+03  d E =-.338266E-03  mag=    20.0000
       N       E                     dE             d eps       ncg     rms          rms(c)
DAV:   1    -0.628184201396E+03    0.39803E-05   -0.51511E-04 19848   0.478E-02    0.310E-02
DAV:   2    -0.628184196685E+03    0.47106E-05   -0.41506E-05 12012   0.171E-02
  87 F= -.62818420E+03 E0= -.62818420E+03  d E =-.337481E-05  mag=    20.0000
       N       E                     dE             d eps       ncg     rms          rms(c)
DAV:   1    -0.628184273768E+03   -0.72373E-04   -0.53841E-02 21528   0.453E-01    0.785E-02
DAV:   2    -0.628184368048E+03   -0.94280E-04   -0.18909E-03 28728   0.109E-01    0.902E-02
DAV:   3    -0.628184355956E+03    0.12092E-04   -0.19074E-04 14196   0.334E-02
  88 F= -.62818436E+03 E0= -.62818436E+03  d E =-.159271E-03  mag=    20.0000
       N       E                     dE             d eps       ncg     rms          rms(c)
DAV:   1    -0.628184460337E+03   -0.92289E-04   -0.19170E-02 21528   0.266E-01    0.501E-02
DAV:   2    -0.628184532086E+03   -0.71749E-04   -0.10659E-03 26892   0.747E-02    0.650E-02
DAV:   3    -0.628184512281E+03    0.19805E-04   -0.90886E-05 12228   0.262E-02
  89 F= -.62818451E+03 E0= -.62818451E+03  d E =-.156325E-03  mag=    20.0000
       N       E                     dE             d eps       ncg     rms          rms(c)
DAV:   1    -0.628184614357E+03   -0.82271E-04   -0.36409E-02 21528   0.377E-01    0.653E-02
DAV:   2    -0.628184658012E+03   -0.43655E-04   -0.10102E-03 25080   0.740E-02    0.502E-02
DAV:   3    -0.628184652101E+03    0.59109E-05   -0.65089E-05 13032   0.238E-02
  90 F= -.62818465E+03 E0= -.62818465E+03  d E =-.139819E-03  mag=    20.0000
       N       E                     dE             d eps       ncg     rms          rms(c)
DAV:   1    -0.628184804953E+03   -0.14694E-03   -0.15686E-02 21600   0.249E-01    0.623E-02
DAV:   2    -0.628184794848E+03    0.10105E-04   -0.60174E-04 23700   0.621E-02
  91 F= -.62818479E+03 E0= -.62818479E+03  d E =-.142747E-03  mag=    20.0000
       N       E                     dE             d eps       ncg     rms          rms(c)
DAV:   1    -0.628184877123E+03   -0.72171E-04   -0.49733E-02 21528   0.440E-01    0.815E-02
DAV:   2    -0.628184971498E+03   -0.94375E-04   -0.15354E-03 27852   0.915E-02    0.618E-02
DAV:   3    -0.628184963042E+03    0.84567E-05   -0.10576E-04 14196   0.304E-02
  92 F= -.62818496E+03 E0= -.62818496E+03  d E =-.168194E-03  mag=    20.0000
       N       E                     dE             d eps       ncg     rms          rms(c)
DAV:   1    -0.628184881080E+03    0.90418E-04   -0.83172E-03 21552   0.181E-01    0.356E-02
DAV:   2    -0.628184891793E+03   -0.10713E-04   -0.24907E-04 13980   0.384E-02
  93 F= -.62818489E+03 E0= -.62818489E+03  d E =0.712482E-04  mag=    20.0000
       N       E                     dE             d eps       ncg     rms          rms(c)
DAV:   1    -0.628184900014E+03   -0.18934E-04   -0.84037E-04 19824   0.612E-02    0.218E-02
DAV:   2    -0.628184898324E+03    0.16906E-05   -0.28257E-05 11508   0.163E-02
  94 F= -.62818490E+03 E0= -.62818490E+03  d E =-.653032E-05  mag=    20.0000
       N       E                     dE             d eps       ncg     rms          rms(c)
DAV:   1    -0.628184926265E+03   -0.26250E-04   -0.10550E-01 21528   0.648E-01    0.126E-01
DAV:   2    -0.628185103363E+03   -0.17710E-03   -0.37369E-03 28344   0.142E-01    0.114E-01
DAV:   3    -0.628185068226E+03    0.35137E-04   -0.22817E-04 17532   0.458E-02
  95 F= -.62818507E+03 E0= -.62818507E+03  d E =-.169902E-03  mag=    20.0000
       N       E                     dE             d eps       ncg     rms          rms(c)
DAV:   1    -0.628185512748E+03   -0.40939E-03   -0.48338E-02 21600   0.457E-01    0.191E-01
DAV:   2    -0.628185094061E+03    0.41869E-03   -0.31350E-03 31440   0.140E-01    0.127E-01
DAV:   3    -0.628185035977E+03    0.58083E-04   -0.56579E-04 23220   0.678E-02
  96 F= -.62818504E+03 E0= -.62818504E+03  d E =0.322485E-04  mag=    20.0000
       N       E                     dE             d eps       ncg     rms          rms(c)
DAV:   1    -0.628185312298E+03   -0.21824E-03   -0.96191E-02 21504   0.616E-01    0.219E-01
DAV:   2    -0.628185124049E+03    0.18825E-03   -0.78300E-03 30708   0.242E-01    0.259E-01
DAV:   3    -0.628184941993E+03    0.18206E-03   -0.12770E-03 29424   0.836E-02    0.153E-01
DAV:   4    -0.628184877997E+03    0.63996E-04   -0.49145E-04 22656   0.512E-02
  97 F= -.62818488E+03 E0= -.62818488E+03  d E =0.157980E-03  mag=    20.0000
       N       E                     dE             d eps       ncg     rms          rms(c)
DAV:   1    -0.628185443325E+03   -0.50133E-03   -0.38299E-02 21624   0.383E-01    0.124E-01
DAV:   2    -0.628185424940E+03    0.18385E-04   -0.37073E-03 29952   0.169E-01    0.165E-01
DAV:   3    -0.628185317377E+03    0.10756E-03   -0.38488E-04 21024   0.542E-02    0.918E-02
DAV:   4    -0.628185292117E+03    0.25260E-04   -0.14338E-04 15504   0.295E-02
  98 F= -.62818529E+03 E0= -.62818529E+03  d E =-.414120E-03  mag=    20.0000
       N       E                     dE             d eps       ncg     rms          rms(c)
DAV:   1    -0.628185629881E+03   -0.31250E-03   -0.63954E-02 21804   0.517E-01    0.159E-01
DAV:   2    -0.628185460375E+03    0.16951E-03   -0.28183E-03 28908   0.120E-01    0.106E-01
DAV:   3    -0.628185413904E+03    0.46471E-04   -0.28053E-04 19488   0.558E-02
  99 F= -.62818541E+03 E0= -.62818541E+03  d E =-.121787E-03  mag=    20.0000
       N       E                     dE             d eps       ncg     rms          rms(c)
DAV:   1    -0.628185510371E+03   -0.49997E-04   -0.14214E-02 21528   0.232E-01    0.475E-02
DAV:   2    -0.628185555355E+03   -0.44984E-04   -0.55574E-04 21888   0.531E-02
 100 F= -.62818556E+03 E0= -.62818556E+03  d E =-.141451E-03  mag=    20.0000
       N       E                     dE             d eps       ncg     rms          rms(c)
DAV:   1    -0.628185625026E+03   -0.11466E-03   -0.16097E-02 21552   0.249E-01    0.723E-02
DAV:   2    -0.628185620406E+03    0.46207E-05   -0.55625E-04 23400   0.574E-02
 101 F= -.62818562E+03 E0= -.62818562E+03  d E =-.650503E-04  mag=    20.0000
       N       E                     dE             d eps       ncg     rms          rms(c)
DAV:   1    -0.628185778774E+03   -0.15375E-03   -0.13167E-02 22272   0.250E-01    0.142E-01
DAV:   2    -0.628185529641E+03    0.24913E-03   -0.14257E-03 30456   0.901E-02    0.948E-02
DAV:   3    -0.628185487993E+03    0.41648E-04   -0.23379E-04 18996   0.497E-02
 102 F= -.62818549E+03 E0= -.62818549E+03  d E =0.132413E-03  mag=    20.0000
       N       E                     dE             d eps       ncg     rms          rms(c)
DAV:   1    -0.628185789667E+03   -0.26003E-03   -0.16999E-02 21600   0.260E-01    0.106E-01
DAV:   2    -0.628185717094E+03    0.72573E-04   -0.11641E-03 29304   0.893E-02    0.899E-02
DAV:   3    -0.628185696218E+03    0.20876E-04   -0.13105E-04 15132   0.378E-02
 103 F= -.62818570E+03 E0= -.62818570E+03  d E =-.208225E-03  mag=    20.0000
       N       E                     dE             d eps       ncg     rms          rms(c)
DAV:   1    -0.628185797689E+03   -0.80595E-04   -0.49394E-02 21528   0.448E-01    0.126E-01
DAV:   2    -0.628185760488E+03    0.37201E-04   -0.18099E-03 27756   0.982E-02    0.767E-02
DAV:   3    -0.628185736568E+03    0.23919E-04   -0.13444E-04 16224   0.423E-02
 104 F= -.62818574E+03 E0= -.62818574E+03  d E =-.403505E-04  mag=    20.0000
       N       E                     dE             d eps       ncg     rms          rms(c)
DAV:   1    -0.628185899472E+03   -0.13898E-03   -0.83330E-03 21864   0.181E-01    0.558E-02
DAV:   2    -0.628185877426E+03    0.22045E-04   -0.33611E-04 15828   0.458E-02
 105 F= -.62818588E+03 E0= -.62818588E+03  d E =-.140858E-03  mag=    20.0000
       N       E                     dE             d eps       ncg     rms          rms(c)
DAV:   1    -0.628185872197E+03    0.27275E-04   -0.12369E-04 11940   0.282E-02    0.209E-02
DAV:   2    -0.628185872624E+03   -0.42724E-06   -0.30772E-05 11796   0.170E-02
 106 F= -.62818587E+03 E0= -.62818587E+03  d E =0.480215E-05  mag=    20.0000
       N       E                     dE             d eps       ncg     rms          rms(c)
DAV:   1    -0.628185941885E+03   -0.69687E-04   -0.44508E-02 21528   0.419E-01    0.585E-02
DAV:   2    -0.628186046681E+03   -0.10480E-03   -0.13327E-03 26640   0.862E-02    0.599E-02
DAV:   3    -0.628186043977E+03    0.27041E-05   -0.66473E-05 12840   0.255E-02
 107 F= -.62818604E+03 E0= -.62818604E+03  d E =-.171353E-03  mag=    20.0000
       N       E                     dE             d eps       ncg     rms          rms(c)
DAV:   1    -0.628186099753E+03   -0.53072E-04   -0.10079E-02 22092   0.212E-01    0.982E-02
DAV:   2    -0.628185983897E+03    0.11586E-03   -0.75658E-04 25080   0.693E-02    0.729E-02
DAV:   3    -0.628185964512E+03    0.19386E-04   -0.11349E-04 15288   0.364E-02
 108 F= -.62818596E+03 E0= -.62818596E+03  d E =0.794652E-04  mag=    20.0000
       N       E                     dE             d eps       ncg     rms          rms(c)
DAV:   1    -0.628186033013E+03   -0.49116E-04   -0.53449E-03 21624   0.147E-01    0.503E-02
DAV:   2    -0.628186016450E+03    0.16563E-04   -0.21048E-04 13308   0.442E-02
 109 F= -.62818602E+03 E0= -.62818602E+03  d E =-.519384E-04  mag=    20.0000
       N       E                     dE             d eps       ncg     rms          rms(c)
DAV:   1    -0.628186116266E+03   -0.83252E-04   -0.27468E-02 21528   0.332E-01    0.689E-02
DAV:   2    -0.628186142566E+03   -0.26300E-04   -0.89591E-04 24948   0.702E-02
 110 F= -.62818614E+03 E0= -.62818614E+03  d E =-.126116E-03  mag=    20.0000
       N       E                     dE             d eps       ncg     rms          rms(c)
DAV:   1    -0.628186182916E+03   -0.66650E-04   -0.24306E-02 21528   0.304E-01    0.654E-02
DAV:   2    -0.628186265973E+03   -0.83057E-04   -0.73116E-04 22692   0.621E-02
 111 F= -.62818627E+03 E0= -.62818627E+03  d E =-.123407E-03  mag=    20.0000
       N       E                     dE             d eps       ncg     rms          rms(c)
DAV:   1    -0.628186282939E+03   -0.10002E-03   -0.30314E-04 17400   0.389E-02    0.281E-02
DAV:   2    -0.628186278783E+03    0.41562E-05   -0.33144E-05 11112   0.177E-02
 112 F= -.62818628E+03 E0= -.62818628E+03  d E =-.128100E-04  mag=    20.0000
       N       E                     dE             d eps       ncg     rms          rms(c)
DAV:   1    -0.628186255551E+03    0.27388E-04   -0.72169E-04 19128   0.533E-02    0.168E-02
DAV:   2    -0.628186258225E+03   -0.26735E-05   -0.23089E-05 11040   0.129E-02
 113 F= -.62818626E+03 E0= -.62818626E+03  d E =0.205588E-04  mag=    20.0000
       N       E                     dE             d eps       ncg     rms          rms(c)
DAV:   1    -0.628186327158E+03   -0.71607E-04   -0.41955E-02 21528   0.406E-01    0.552E-02
DAV:   2    -0.628186421898E+03   -0.94741E-04   -0.12682E-03 25152   0.787E-02    0.454E-02
DAV:   3    -0.628186418202E+03    0.36965E-05   -0.59476E-05 12180   0.227E-02
 114 F= -.62818642E+03 E0= -.62818642E+03  d E =-.159977E-03  mag=    20.0000
       N       E                     dE             d eps       ncg     rms          rms(c)
DAV:   1    -0.628186488513E+03   -0.66614E-04   -0.17091E-02 21528   0.257E-01    0.388E-02
DAV:   2    -0.628186526413E+03   -0.37901E-04   -0.49611E-04 20676   0.515E-02
 115 F= -.62818653E+03 E0= -.62818653E+03  d E =-.108211E-03  mag=    20.0000
       N       E                     dE             d eps       ncg     rms          rms(c)
DAV:   1    -0.628186425538E+03    0.62975E-04   -0.15171E-01 21504   0.764E-01    0.121E-01
DAV:   2    -0.628186829152E+03   -0.40361E-03   -0.41425E-03 25236   0.135E-01    0.691E-02
DAV:   3    -0.628186832473E+03   -0.33206E-05   -0.15681E-04 15396   0.335E-02
 116 F= -.62818683E+03 E0= -.62818683E+03  d E =-.306059E-03  mag=    20.0000
       N       E                     dE             d eps       ncg     rms          rms(c)
DAV:   1    -0.628186895346E+03   -0.66194E-04   -0.32210E-02 21528   0.352E-01    0.445E-02
DAV:   2    -0.628186965315E+03   -0.69969E-04   -0.79117E-04 22680   0.586E-02
 117 F= -.62818697E+03 E0= -.62818697E+03  d E =-.132842E-03  mag=    20.0000
