       N       E                     dE             d eps       ncg     rms          rms(c)
DAV:   1     0.551057314635E+04    0.55106E+04   -0.19753E+05 21504   0.125E+03
DAV:   2     0.484945819374E+03   -0.50256E+04   -0.46243E+04 22272   0.349E+02
DAV:   3    -0.721800617293E+03   -0.12067E+04   -0.11692E+04 25212   0.178E+02
DAV:   4    -0.824805465818E+03   -0.10300E+03   -0.10154E+03 32268   0.593E+01
DAV:   5    -0.828572018190E+03   -0.37666E+01   -0.37226E+01 34020   0.128E+01
DAV:   6    -0.828737600423E+03   -0.16558E+00   -0.16440E+00 33972   0.236E+00
DAV:   7    -0.828746123673E+03   -0.85233E-02   -0.84938E-02 34104   0.545E-01
DAV:   8    -0.828746677389E+03   -0.55372E-03   -0.55278E-03 27852   0.121E-01
DAV:   9    -0.828746716441E+03   -0.39052E-04   -0.38992E-04 20064   0.371E-02
DAV:  10    -0.828746720626E+03   -0.41852E-05   -0.41698E-05 17736   0.170E-02
DAV:  11    -0.828746722198E+03   -0.15720E-05   -0.15650E-05 16476   0.117E-02
DAV:  12    -0.828746723103E+03   -0.90521E-06   -0.90151E-06 16092   0.877E-03    0.115E+02
DAV:  13    -0.619694288545E+03    0.20905E+03   -0.12739E+03 32124   0.826E+01    0.818E+01
DAV:  14    -0.684807899698E+03   -0.65114E+02   -0.14541E+03 35280   0.105E+02    0.111E+02
DAV:  15    -0.656708995826E+03    0.28099E+02   -0.42817E+02 33048   0.789E+01    0.484E+01
DAV:  16    -0.637696497932E+03    0.19012E+02   -0.93933E+01 35304   0.356E+01    0.369E+01
DAV:  17    -0.627718719260E+03    0.99778E+01   -0.43999E+01 32652   0.161E+01    0.224E+01
DAV:  18    -0.627224486471E+03    0.49423E+00   -0.29537E+01 30648   0.142E+01    0.246E+01
DAV:  19    -0.625398732362E+03    0.18258E+01   -0.14997E+01 33480   0.113E+01    0.132E+01
DAV:  20    -0.624268494408E+03    0.11302E+01   -0.46262E+00 33228   0.892E+00    0.631E+00
DAV:  21    -0.623998731049E+03    0.26976E+00   -0.16225E+00 31596   0.334E+00    0.434E+00
DAV:  22    -0.623755224123E+03    0.24351E+00   -0.45690E-01 33492   0.258E+00    0.327E+00
DAV:  23    -0.623610645277E+03    0.14458E+00   -0.22808E-01 33816   0.202E+00    0.437E+00
DAV:  24    -0.623625051557E+03   -0.14406E-01   -0.18681E-01 26640   0.851E-01    0.350E+00
DAV:  25    -0.623616429703E+03    0.86219E-02   -0.28584E-02 32028   0.355E-01    0.393E+00
DAV:  26    -0.623621586917E+03   -0.51572E-02   -0.56728E-03 28692   0.110E-01    0.408E+00
DAV:  27    -0.623616710919E+03    0.48760E-02   -0.78522E-02 36216   0.797E-01    0.538E+00
DAV:  28    -0.623598174539E+03    0.18536E-01   -0.31635E-02 31176   0.448E-01    0.418E+00
DAV:  29    -0.623621389183E+03   -0.23215E-01   -0.10186E-01 33840   0.116E+00    0.178E+00
DAV:  30    -0.623575162763E+03    0.46226E-01   -0.29693E-01 31524   0.205E+00    0.443E+00
DAV:  31    -0.623583698046E+03   -0.85353E-02   -0.16274E-01 30192   0.683E-01    0.518E+00
DAV:  32    -0.623577858390E+03    0.58397E-02   -0.15148E-02 26484   0.318E-01    0.483E+00
DAV:  33    -0.623583187216E+03   -0.53288E-02   -0.99879E-03 31320   0.237E-01    0.445E+00
DAV:  34    -0.623577289520E+03    0.58977E-02   -0.67763E-02 32628   0.496E-01    0.346E+00
DAV:  35    -0.623572262903E+03    0.50266E-02   -0.45993E-02 30240   0.432E-01    0.209E+00
DAV:  36    -0.623568641165E+03    0.36217E-02   -0.20295E-02 28536   0.282E-01    0.187E+00
DAV:  37    -0.623566580269E+03    0.20609E-02   -0.22782E-02 30180   0.252E-01    0.159E+00
DAV:  38    -0.623563023794E+03    0.35565E-02   -0.17566E-02 30036   0.301E-01    0.862E-01
DAV:  39    -0.623562873087E+03    0.15071E-03   -0.76196E-03 29196   0.210E-01    0.343E-01
DAV:  40    -0.623563797867E+03   -0.92478E-03   -0.38750E-03 30516   0.107E-01    0.683E-01
DAV:  41    -0.623564527717E+03   -0.72985E-03   -0.31440E-03 21504   0.953E-02    0.101E+00
DAV:  42    -0.623564568726E+03   -0.41009E-04   -0.14032E-03 23652   0.940E-02    0.896E-01
DAV:  43    -0.623564591939E+03   -0.23214E-04   -0.48791E-03 30552   0.155E-01    0.461E-01
DAV:  44    -0.623564722369E+03   -0.13043E-03   -0.31449E-03 29988   0.123E-01    0.159E-01
DAV:  45    -0.623564803606E+03   -0.81237E-04   -0.19714E-03 26148   0.106E-01    0.185E-01
DAV:  46    -0.623564798602E+03    0.50032E-05   -0.24359E-03 26844   0.876E-02    0.319E-01
DAV:  47    -0.623564893087E+03   -0.94484E-04   -0.10569E-03 23916   0.527E-02    0.499E-01
DAV:  48    -0.623564938155E+03   -0.45069E-04   -0.60432E-04 16896   0.482E-02
   1 F= -.62356494E+03 E0= -.62353082E+03  d E =-.623565E+03  mag=    19.6875
       N       E                     dE             d eps       ncg     rms          rms(c)
DAV:   1    -0.623504353601E+03    0.60539E-01   -0.13052E+03 21504   0.718E+01    0.191E+01
DAV:   2    -0.627241588760E+03   -0.37372E+01   -0.82685E+01 31620   0.301E+01    0.240E+01
DAV:   3    -0.627127312528E+03    0.11428E+00   -0.14448E+01 30468   0.831E+00    0.155E+01
DAV:   4    -0.626120337311E+03    0.10070E+01   -0.27770E+00 32316   0.397E+00    0.111E+01
DAV:   5    -0.626080836239E+03    0.39501E-01   -0.33399E+00 31800   0.415E+00    0.472E+00
DAV:   6    -0.625916654100E+03    0.16418E+00   -0.95273E-01 32196   0.293E+00    0.255E+00
DAV:   7    -0.625919876262E+03   -0.32222E-02   -0.59497E-01 31968   0.208E+00    0.192E+00
DAV:   8    -0.625911649469E+03    0.82268E-02   -0.14593E-01 31800   0.102E+00    0.981E-01
DAV:   9    -0.625911438479E+03    0.21099E-03   -0.22942E-02 31596   0.452E-01    0.553E-01
DAV:  10    -0.625911776899E+03   -0.33842E-03   -0.80021E-03 29268   0.226E-01    0.419E-01
DAV:  11    -0.625910740896E+03    0.10360E-02   -0.45733E-03 31596   0.162E-01    0.212E-01
DAV:  12    -0.625910785798E+03   -0.44902E-04   -0.26235E-03 31788   0.119E-01    0.120E-01
DAV:  13    -0.625910816943E+03   -0.31145E-04   -0.21555E-04 17112   0.447E-02
   2 F= -.62591082E+03 E0= -.62591082E+03  d E =-.234588E+01  mag=    19.7999
       N       E                     dE             d eps       ncg     rms          rms(c)
DAV:   1    -0.628143805447E+03   -0.22330E+01   -0.17412E+02 21744   0.262E+01    0.114E+01
DAV:   2    -0.627712929433E+03    0.43088E+00   -0.15570E+01 30060   0.116E+01    0.142E+01
DAV:   3    -0.627396917348E+03    0.31601E+00   -0.31671E+00 30540   0.386E+00    0.943E+00
DAV:   4    -0.627350347970E+03    0.46569E-01   -0.13763E+00 31704   0.287E+00    0.745E+00
DAV:   5    -0.627248250121E+03    0.10210E+00   -0.44731E-01 30276   0.204E+00    0.319E+00
DAV:   6    -0.627208321959E+03    0.39928E-01   -0.43205E-01 31440   0.142E+00    0.126E+00
DAV:   7    -0.627203096126E+03    0.52258E-02   -0.84326E-02 30456   0.672E-01    0.861E-01
DAV:   8    -0.627199583816E+03    0.35123E-02   -0.14724E-02 32052   0.464E-01    0.355E-01
DAV:   9    -0.627198993975E+03    0.58984E-03   -0.10433E-02 30876   0.255E-01    0.246E-01
DAV:  10    -0.627198951200E+03    0.42775E-04   -0.33799E-03 30600   0.127E-01    0.172E-01
DAV:  11    -0.627198872979E+03    0.78221E-04   -0.10509E-03 29736   0.740E-02    0.113E-01
DAV:  12    -0.627198878606E+03   -0.56265E-05   -0.16139E-04 14568   0.390E-02
   3 F= -.62719888E+03 E0= -.62719888E+03  d E =-.128806E+01  mag=    19.8763
       N       E                     dE             d eps       ncg     rms          rms(c)
DAV:   1    -0.627218679958E+03   -0.19807E-01   -0.12076E+02 21504   0.213E+01    0.482E+00
DAV:   2    -0.627633946576E+03   -0.41527E+00   -0.58467E+00 28968   0.597E+00    0.639E+00
DAV:   3    -0.627589763977E+03    0.44183E-01   -0.57536E-01 27912   0.177E+00    0.453E+00
DAV:   4    -0.627523274549E+03    0.66489E-01   -0.28971E-01 28188   0.112E+00    0.347E+00
DAV:   5    -0.627518514044E+03    0.47605E-02   -0.26078E-01 29112   0.118E+00    0.172E+00
DAV:   6    -0.627502557873E+03    0.15956E-01   -0.11873E-01 31404   0.860E-01    0.119E+00
DAV:   7    -0.627495713073E+03    0.68448E-02   -0.89601E-02 27168   0.578E-01    0.573E-01
DAV:   8    -0.627496115358E+03   -0.40229E-03   -0.11444E-02 28812   0.273E-01    0.292E-01
DAV:   9    -0.627496029558E+03    0.85801E-04   -0.39845E-03 29652   0.135E-01    0.201E-01
DAV:  10    -0.627495819111E+03    0.21045E-03   -0.65387E-04 26436   0.880E-02    0.153E-01
DAV:  11    -0.627495711809E+03    0.10730E-03   -0.71387E-04 25812   0.591E-02    0.841E-02
DAV:  12    -0.627495666151E+03    0.45658E-04   -0.29611E-04 16344   0.386E-02
   4 F= -.62749567E+03 E0= -.62749567E+03  d E =-.296788E+00  mag=    19.9214
       N       E                     dE             d eps       ncg     rms          rms(c)
DAV:   1    -0.627709467576E+03   -0.21376E+00   -0.25158E+01 21504   0.994E+00    0.268E+00
DAV:   2    -0.627740175764E+03   -0.30708E-01   -0.13839E+00 30048   0.296E+00    0.317E+00
DAV:   3    -0.627725017910E+03    0.15158E-01   -0.13531E-01 28164   0.927E-01    0.215E+00
DAV:   4    -0.627709316126E+03    0.15702E-01   -0.84765E-02 30576   0.624E-01    0.166E+00
DAV:   5    -0.627706719908E+03    0.25962E-02   -0.29390E-02 29196   0.470E-01    0.763E-01
DAV:   6    -0.627704324082E+03    0.23958E-02   -0.20068E-02 32460   0.385E-01    0.300E-01
DAV:   7    -0.627704514494E+03   -0.19041E-03   -0.11117E-02 30540   0.246E-01    0.284E-01
DAV:   8    -0.627704411848E+03    0.10265E-03   -0.12587E-03 29772   0.120E-01    0.124E-01
DAV:   9    -0.627704424769E+03   -0.12921E-04   -0.69037E-04 23616   0.596E-02
   5 F= -.62770442E+03 E0= -.62770442E+03  d E =-.208759E+00  mag=    19.9452
       N       E                     dE             d eps       ncg     rms          rms(c)
DAV:   1    -0.627800339073E+03   -0.95927E-01   -0.31733E+01 21528   0.113E+01    0.307E+00
DAV:   2    -0.627789128385E+03    0.11211E-01   -0.13682E+00 29820   0.272E+00    0.239E+00
DAV:   3    -0.627774966122E+03    0.14162E-01   -0.17445E-01 29784   0.116E+00    0.110E+00
DAV:   4    -0.627768101329E+03    0.68648E-02   -0.47681E-02 31836   0.532E-01    0.770E-01
DAV:   5    -0.627766293442E+03    0.18079E-02   -0.10893E-02 29544   0.286E-01    0.388E-01
DAV:   6    -0.627766009646E+03    0.28380E-03   -0.55377E-03 31968   0.169E-01    0.171E-01
DAV:   7    -0.627766032247E+03   -0.22601E-04   -0.16717E-03 30696   0.104E-01    0.107E-01
DAV:   8    -0.627766041400E+03   -0.91529E-05   -0.32619E-04 19452   0.416E-02
   6 F= -.62776604E+03 E0= -.62776604E+03  d E =-.616166E-01  mag=    19.9606
       N       E                     dE             d eps       ncg     rms          rms(c)
DAV:   1    -0.627899388216E+03   -0.13336E+00   -0.13076E+01 21696   0.740E+00    0.239E+00
DAV:   2    -0.627868149215E+03    0.31239E-01   -0.82437E-01 31548   0.238E+00    0.235E+00
DAV:   3    -0.627852471505E+03    0.15678E-01   -0.10658E-01 30984   0.856E-01    0.120E+00
DAV:   4    -0.627848012538E+03    0.44590E-02   -0.29903E-02 31812   0.416E-01    0.885E-01
DAV:   5    -0.627847026781E+03    0.98576E-03   -0.71335E-03 29616   0.254E-01    0.414E-01
DAV:   6    -0.627846566015E+03    0.46077E-03   -0.52915E-03 32376   0.183E-01    0.121E-01
DAV:   7    -0.627846608954E+03   -0.42939E-04   -0.93969E-04 28164   0.989E-02
   7 F= -.62784661E+03 E0= -.62784661E+03  d E =-.805676E-01  mag=    19.9703
       N       E                     dE             d eps       ncg     rms          rms(c)
DAV:   1    -0.627838529450E+03    0.80366E-02   -0.78084E+00 21504   0.544E+00    0.120E+00
DAV:   2    -0.627860546788E+03   -0.22017E-01   -0.39878E-01 28992   0.153E+00    0.170E+00
DAV:   3    -0.627857135749E+03    0.34110E-02   -0.36198E-02 26772   0.410E-01    0.135E+00
DAV:   4    -0.627851943992E+03    0.51918E-02   -0.26086E-02 29568   0.320E-01    0.107E+00
DAV:   5    -0.627851349841E+03    0.59415E-03   -0.17856E-02 28716   0.291E-01    0.584E-01
DAV:   6    -0.627850132321E+03    0.12175E-02   -0.76627E-03 32160   0.230E-01    0.405E-01
DAV:   7    -0.627849632687E+03    0.49963E-03   -0.40514E-03 26976   0.126E-01    0.214E-01
DAV:   8    -0.627849556236E+03    0.76450E-04   -0.96245E-04 28944   0.703E-02
   8 F= -.62784956E+03 E0= -.62784956E+03  d E =-.294728E-02  mag=    19.9779
       N       E                     dE             d eps       ncg     rms          rms(c)
DAV:   1    -0.627882713475E+03   -0.33081E-01   -0.13164E+01 21504   0.693E+00    0.188E+00
DAV:   2    -0.627898160926E+03   -0.15447E-01   -0.66993E-01 27816   0.191E+00    0.213E+00
DAV:   3    -0.627891660472E+03    0.65005E-02   -0.72084E-02 28092   0.628E-01    0.151E+00
DAV:   4    -0.627882647451E+03    0.90130E-02   -0.53986E-02 30804   0.509E-01    0.114E+00
DAV:   5    -0.627881543791E+03    0.11037E-02   -0.19244E-02 29088   0.409E-01    0.563E-01
DAV:   6    -0.627879919698E+03    0.16241E-02   -0.14480E-02 31440   0.296E-01    0.278E-01
DAV:   7    -0.627879895711E+03    0.23986E-04   -0.92460E-03 28056   0.195E-01    0.187E-01
DAV:   8    -0.627879833562E+03    0.62149E-04   -0.12491E-03 28752   0.107E-01    0.826E-02
DAV:   9    -0.627879865169E+03   -0.31608E-04   -0.57504E-04 21240   0.513E-02
   9 F= -.62787987E+03 E0= -.62787987E+03  d E =-.303089E-01  mag=    19.9845
       N       E                     dE             d eps       ncg     rms          rms(c)
DAV:   1    -0.627921610474E+03   -0.41777E-01   -0.56301E+00 21504   0.470E+00    0.122E+00
DAV:   2    -0.627927438484E+03   -0.58280E-02   -0.28020E-01 29424   0.127E+00    0.136E+00
DAV:   3    -0.627924104607E+03    0.33339E-02   -0.25109E-02 28788   0.423E-01    0.856E-01
DAV:   4    -0.627921780822E+03    0.23238E-02   -0.15986E-02 30648   0.274E-01    0.648E-01
DAV:   5    -0.627921351306E+03    0.42952E-03   -0.31968E-03 27564   0.175E-01    0.288E-01
DAV:   6    -0.627921143741E+03    0.20756E-03   -0.24709E-03 32184   0.136E-01    0.103E-01
DAV:   7    -0.627921178433E+03   -0.34692E-04   -0.94113E-04 27384   0.810E-02
  10 F= -.62792118E+03 E0= -.62792118E+03  d E =-.413133E-01  mag=    19.9882
       N       E                     dE             d eps       ncg     rms          rms(c)
DAV:   1    -0.627928961219E+03   -0.78175E-02   -0.58363E-01 21600   0.151E+00    0.335E-01
DAV:   2    -0.627930086604E+03   -0.11254E-02   -0.27425E-02 29232   0.381E-01    0.381E-01
DAV:   3    -0.627929707636E+03    0.37897E-03   -0.23003E-03 29076   0.127E-01    0.221E-01
DAV:   4    -0.627929564229E+03    0.14341E-03   -0.12458E-03 27168   0.829E-02    0.165E-01
DAV:   5    -0.627929543048E+03    0.21181E-04   -0.27521E-04 16416   0.473E-02
  11 F= -.62792954E+03 E0= -.62792954E+03  d E =-.836462E-02  mag=    19.9903
       N       E                     dE             d eps       ncg     rms          rms(c)
DAV:   1    -0.627929684828E+03   -0.12060E-03   -0.99654E+00 21504   0.626E+00    0.714E-01
DAV:   2    -0.627957316821E+03   -0.27632E-01   -0.27585E-01 26364   0.111E+00    0.530E-01
DAV:   3    -0.627957817706E+03   -0.50089E-03   -0.13635E-02 29964   0.257E-01    0.280E-01
DAV:   4    -0.627957126036E+03    0.69167E-03   -0.20261E-03 30492   0.135E-01    0.217E-01
DAV:   5    -0.627956866085E+03    0.25995E-03   -0.22733E-03 28176   0.125E-01    0.952E-02
DAV:   6    -0.627956863563E+03    0.25220E-05   -0.78972E-04 24876   0.698E-02
  12 F= -.62795686E+03 E0= -.62795686E+03  d E =-.273205E-01  mag=    19.9922
       N       E                     dE             d eps       ncg     rms          rms(c)
DAV:   1    -0.627938492248E+03    0.18374E-01   -0.26626E+00 21504   0.323E+00    0.467E-01
DAV:   2    -0.627945701334E+03   -0.72091E-02   -0.89329E-02 27276   0.730E-01    0.603E-01
DAV:   3    -0.627945425044E+03    0.27629E-03   -0.79161E-03 28152   0.199E-01    0.407E-01
DAV:   4    -0.627944892041E+03    0.53300E-03   -0.36085E-03 30672   0.145E-01    0.328E-01
DAV:   5    -0.627944716431E+03    0.17561E-03   -0.16598E-03 27552   0.119E-01    0.178E-01
DAV:   6    -0.627944612597E+03    0.10383E-03   -0.13374E-03 30192   0.820E-02    0.985E-02
DAV:   7    -0.627944575804E+03    0.36794E-04   -0.50997E-04 21516   0.480E-02
  13 F= -.62794458E+03 E0= -.62794458E+03  d E =0.122878E-01  mag=    19.9940
       N       E                     dE             d eps       ncg     rms          rms(c)
DAV:   1    -0.627947965029E+03   -0.33524E-02   -0.66108E+00 21504   0.510E+00    0.633E-01
DAV:   2    -0.627966875434E+03   -0.18910E-01   -0.18963E-01 26520   0.958E-01    0.580E-01
DAV:   3    -0.627966920037E+03   -0.44603E-04   -0.10283E-02 30024   0.241E-01    0.325E-01
DAV:   4    -0.627966299219E+03    0.62082E-03   -0.20530E-03 29664   0.129E-01    0.254E-01
DAV:   5    -0.627966059789E+03    0.23943E-03   -0.19750E-03 26796   0.132E-01    0.102E-01
DAV:   6    -0.627966070805E+03   -0.11016E-04   -0.11162E-03 26652   0.758E-02    0.606E-02
DAV:   7    -0.627966059444E+03    0.11361E-04   -0.34397E-04 17928   0.424E-02
  14 F= -.62796606E+03 E0= -.62796606E+03  d E =-.214836E-01  mag=    19.9954
       N       E                     dE             d eps       ncg     rms          rms(c)
DAV:   1    -0.627970115822E+03   -0.40450E-02   -0.80946E-01 21504   0.178E+00    0.261E-01
DAV:   2    -0.627972564583E+03   -0.24488E-02   -0.27298E-02 27564   0.374E-01    0.307E-01
DAV:   3    -0.627972455362E+03    0.10922E-03   -0.16729E-03 28860   0.101E-01    0.189E-01
DAV:   4    -0.627972357554E+03    0.97808E-04   -0.63436E-04 24780   0.677E-02
  15 F= -.62797236E+03 E0= -.62797236E+03  d E =-.629811E-02  mag=    19.9961
       N       E                     dE             d eps       ncg     rms          rms(c)
DAV:   1    -0.627974643033E+03   -0.21877E-02   -0.16893E-01 21588   0.803E-01    0.154E-01
DAV:   2    -0.627975133196E+03   -0.49016E-03   -0.79014E-03 28320   0.217E-01    0.211E-01
DAV:   3    -0.627975006970E+03    0.12623E-03   -0.56417E-04 22728   0.637E-02    0.123E-01
DAV:   4    -0.627974968302E+03    0.38668E-04   -0.33263E-04 19776   0.428E-02
  16 F= -.62797497E+03 E0= -.62797497E+03  d E =-.261075E-02  mag=    19.9966
       N       E                     dE             d eps       ncg     rms          rms(c)
DAV:   1    -0.627947804323E+03    0.27203E-01   -0.17994E+01 21504   0.839E+00    0.112E+00
DAV:   2    -0.628001026516E+03   -0.53222E-01   -0.48901E-01 25644   0.145E+00    0.708E-01
DAV:   3    -0.628002599694E+03   -0.15732E-02   -0.19978E-02 29328   0.303E-01    0.339E-01
DAV:   4    -0.628001259080E+03    0.13406E-02   -0.44047E-03 30948   0.200E-01    0.221E-01
DAV:   5    -0.628001157983E+03    0.10110E-03   -0.39554E-03 29760   0.141E-01    0.111E-01
DAV:   6    -0.628001096004E+03    0.61979E-04   -0.78290E-04 26436   0.774E-02
  17 F= -.62800110E+03 E0= -.62800110E+03  d E =-.261277E-01  mag=    19.9973
       N       E                     dE             d eps       ncg     rms          rms(c)
DAV:   1    -0.628000922408E+03    0.23557E-03   -0.34876E+00 21504   0.371E+00    0.568E-01
DAV:   2    -0.628009673896E+03   -0.87515E-02   -0.10258E-01 26940   0.726E-01    0.404E-01
DAV:   3    -0.628010027361E+03   -0.35347E-03   -0.91824E-03 31116   0.231E-01    0.237E-01
DAV:   4    -0.628009698195E+03    0.32917E-03   -0.13611E-03 31032   0.982E-02    0.155E-01
DAV:   5    -0.628009574372E+03    0.12382E-03   -0.93455E-04 27900   0.841E-02    0.692E-02
DAV:   6    -0.628009562685E+03    0.11687E-04   -0.40216E-04 21300   0.575E-02
  18 F= -.62800956E+03 E0= -.62800956E+03  d E =-.846668E-02  mag=    19.9978
       N       E                     dE             d eps       ncg     rms          rms(c)
DAV:   1    -0.628001941508E+03    0.76329E-02   -0.63498E+00 21504   0.498E+00    0.682E-01
DAV:   2    -0.628020894213E+03   -0.18953E-01   -0.17751E-01 26016   0.897E-01    0.485E-01
DAV:   3    -0.628021311075E+03   -0.41686E-03   -0.79448E-03 29484   0.211E-01    0.250E-01
DAV:   4    -0.628020915525E+03    0.39555E-03   -0.14160E-03 29472   0.104E-01    0.178E-01
DAV:   5    -0.628020762974E+03    0.15255E-03   -0.10934E-03 26700   0.889E-02    0.688E-02
DAV:   6    -0.628020775538E+03   -0.12564E-04   -0.34668E-04 19440   0.510E-02
  19 F= -.62802078E+03 E0= -.62802078E+03  d E =-.112129E-01  mag=    19.9983
       N       E                     dE             d eps       ncg     rms          rms(c)
DAV:   1    -0.628020541268E+03    0.22171E-03   -0.13592E-01 21636   0.723E-01    0.164E-01
DAV:   2    -0.628020878454E+03   -0.33719E-03   -0.71619E-03 29328   0.225E-01    0.242E-01
DAV:   3    -0.628020828488E+03    0.49965E-04   -0.76707E-04 24408   0.603E-02
  20 F= -.62802083E+03 E0= -.62802083E+03  d E =-.529503E-04  mag=    19.9984
       N       E                     dE             d eps       ncg     rms          rms(c)
DAV:   1    -0.628021776587E+03   -0.89813E-03   -0.82735E-01 21528   0.180E+00    0.275E-01
DAV:   2    -0.628024436396E+03   -0.26598E-02   -0.29463E-02 28476   0.397E-01    0.274E-01
DAV:   3    -0.628024211153E+03    0.22524E-03   -0.22640E-03 29028   0.122E-01    0.126E-01
DAV:   4    -0.628024134843E+03    0.76310E-04   -0.54731E-04 23544   0.557E-02
  21 F= -.62802413E+03 E0= -.62802413E+03  d E =-.330636E-02  mag=    19.9986
       N       E                     dE             d eps       ncg     rms          rms(c)
DAV:   1    -0.628025400973E+03   -0.11898E-02   -0.42270E-01 21588   0.128E+00    0.189E-01
DAV:   2    -0.628026581850E+03   -0.11809E-02   -0.13107E-02 27960   0.268E-01    0.201E-01
DAV:   3    -0.628026508248E+03    0.73602E-04   -0.94037E-04 26724   0.782E-02
  22 F= -.62802651E+03 E0= -.62802651E+03  d E =-.237340E-02  mag=    19.9987
       N       E                     dE             d eps       ncg     rms          rms(c)
DAV:   1    -0.628027400792E+03   -0.81894E-03   -0.11364E-01 21624   0.663E-01    0.123E-01
DAV:   2    -0.628027761195E+03   -0.36040E-03   -0.39676E-03 28236   0.139E-01    0.103E-01
DAV:   3    -0.628027716279E+03    0.44916E-04   -0.26376E-04 18564   0.452E-02
  23 F= -.62802772E+03 E0= -.62802772E+03  d E =-.120803E-02  mag=    19.9988
       N       E                     dE             d eps       ncg     rms          rms(c)
DAV:   1    -0.628026343595E+03    0.14176E-02   -0.23300E+00 21504   0.302E+00    0.394E-01
DAV:   2    -0.628032851639E+03   -0.65080E-02   -0.61011E-02 24084   0.518E-01    0.218E-01
DAV:   3    -0.628033061249E+03   -0.20961E-03   -0.25420E-03 30384   0.104E-01    0.128E-01
DAV:   4    -0.628032921056E+03    0.14019E-03   -0.24413E-04 17460   0.495E-02    0.866E-02
DAV:   5    -0.628032853662E+03    0.67393E-04   -0.59995E-04 22392   0.656E-02
  24 F= -.62803285E+03 E0= -.62803285E+03  d E =-.513738E-02  mag=    19.9990
       N       E                     dE             d eps       ncg     rms          rms(c)
DAV:   1    -0.628001643575E+03    0.31277E-01   -0.14036E+01 21504   0.739E+00    0.105E+00
DAV:   2    -0.628042876882E+03   -0.41233E-01   -0.36837E-01 23976   0.126E+00    0.535E-01
DAV:   3    -0.628044970722E+03   -0.20938E-02   -0.16495E-02 29652   0.250E-01    0.273E-01
DAV:   4    -0.628044153871E+03    0.81685E-03   -0.24752E-03 30540   0.128E-01    0.166E-01
DAV:   5    -0.628043796062E+03    0.35781E-03   -0.15151E-03 29592   0.115E-01    0.946E-02
DAV:   6    -0.628043832230E+03   -0.36167E-04   -0.59105E-04 23892   0.538E-02
  25 F= -.62804383E+03 E0= -.62804383E+03  d E =-.109786E-01  mag=    19.9992
       N       E                     dE             d eps       ncg     rms          rms(c)
DAV:   1    -0.628043036167E+03    0.75990E-03   -0.11593E+00 21504   0.213E+00    0.308E-01
DAV:   2    -0.628046341394E+03   -0.33052E-02   -0.32082E-02 26592   0.402E-01    0.232E-01
DAV:   3    -0.628046448310E+03   -0.10692E-03   -0.19973E-03 30420   0.117E-01    0.147E-01
DAV:   4    -0.628046383624E+03    0.64686E-04   -0.23588E-04 16272   0.425E-02
  26 F= -.62804638E+03 E0= -.62804638E+03  d E =-.255139E-02  mag=    19.9993
       N       E                     dE             d eps       ncg     rms          rms(c)
DAV:   1    -0.628035981216E+03    0.10467E-01   -0.22014E+00 21504   0.293E+00    0.420E-01
DAV:   2    -0.628042712101E+03   -0.67309E-02   -0.60982E-02 25524   0.526E-01    0.253E-01
DAV:   3    -0.628042998198E+03   -0.28610E-03   -0.29505E-03 29664   0.126E-01    0.131E-01
DAV:   4    -0.628042883158E+03    0.11504E-03   -0.33503E-04 19008   0.486E-02    0.808E-02
DAV:   5    -0.628042805587E+03    0.77570E-04   -0.29510E-04 15312   0.510E-02
  27 F= -.62804281E+03 E0= -.62804281E+03  d E =0.357804E-02  mag=    19.9994
       N       E                     dE             d eps       ncg     rms          rms(c)
DAV:   1    -0.628042758492E+03    0.12467E-03   -0.82372E-01 21504   0.180E+00    0.200E-01
DAV:   2    -0.628045103739E+03   -0.23452E-02   -0.22155E-02 23976   0.312E-01    0.119E-01
DAV:   3    -0.628045145745E+03   -0.42006E-04   -0.69596E-04 24588   0.563E-02
  28 F= -.62804515E+03 E0= -.62804515E+03  d E =-.234016E-02  mag=    19.9995
       N       E                     dE             d eps       ncg     rms          rms(c)
DAV:   1    -0.628045767166E+03   -0.66343E-03   -0.30744E-01 21576   0.109E+00    0.176E-01
DAV:   2    -0.628046503971E+03   -0.73681E-03   -0.77470E-03 24552   0.186E-01    0.101E-01
DAV:   3    -0.628046493979E+03    0.99920E-05   -0.32470E-04 19248   0.490E-02
  29 F= -.62804649E+03 E0= -.62804649E+03  d E =-.134823E-02  mag=    19.9995
       N       E                     dE             d eps       ncg     rms          rms(c)
DAV:   1    -0.628046585959E+03   -0.81987E-04   -0.74338E-01 21504   0.170E+00    0.225E-01
DAV:   2    -0.628048536328E+03   -0.19504E-02   -0.18922E-02 25056   0.290E-01    0.136E-01
DAV:   3    -0.628048581932E+03   -0.45604E-04   -0.88705E-04 26964   0.634E-02
  30 F= -.62804858E+03 E0= -.62804858E+03  d E =-.208795E-02  mag=    19.9996
       N       E                     dE             d eps       ncg     rms          rms(c)
DAV:   1    -0.628043557230E+03    0.49791E-02   -0.31924E+00 21504   0.353E+00    0.483E-01
DAV:   2    -0.628052360666E+03   -0.88034E-02   -0.81985E-02 23628   0.600E-01    0.266E-01
DAV:   3    -0.628052599860E+03   -0.23919E-03   -0.31976E-03 30348   0.119E-01    0.151E-01
DAV:   4    -0.628052387708E+03    0.21215E-03   -0.43315E-04 21312   0.568E-02    0.934E-02
DAV:   5    -0.628052265573E+03    0.12214E-03   -0.43825E-04 21288   0.698E-02    0.511E-02
DAV:   6    -0.628052282583E+03   -0.17010E-04   -0.22580E-04 14424   0.361E-02
  31 F= -.62805228E+03 E0= -.62805228E+03  d E =-.370065E-02  mag=    19.9997
       N       E                     dE             d eps       ncg     rms          rms(c)
DAV:   1    -0.628052657142E+03   -0.39157E-03   -0.14677E-01 21600   0.758E-01    0.107E-01
DAV:   2    -0.628053070010E+03   -0.41287E-03   -0.41262E-03 25920   0.138E-01    0.608E-02
DAV:   3    -0.628053083552E+03   -0.13541E-04   -0.15812E-04 13464   0.322E-02
  32 F= -.62805308E+03 E0= -.62805308E+03  d E =-.800969E-03  mag=    19.9997
       N       E                     dE             d eps       ncg     rms          rms(c)
DAV:   1    -0.628053445544E+03   -0.37553E-03   -0.14377E-01 21576   0.750E-01    0.875E-02
DAV:   2    -0.628053794726E+03   -0.34918E-03   -0.37637E-03 26424   0.128E-01    0.623E-02
DAV:   3    -0.628053783720E+03    0.11006E-04   -0.10782E-04 13344   0.287E-02
  33 F= -.62805378E+03 E0= -.62805378E+03  d E =-.700169E-03  mag=    19.9997
       N       E                     dE             d eps       ncg     rms          rms(c)
DAV:   1    -0.628052044392E+03    0.17503E-02   -0.14747E+00 21504   0.240E+00    0.298E-01
DAV:   2    -0.628056029294E+03   -0.39849E-02   -0.37908E-02 23688   0.401E-01    0.159E-01
DAV:   3    -0.628056131069E+03   -0.10177E-03   -0.14922E-03 29316   0.772E-02    0.867E-02
DAV:   4    -0.628056033130E+03    0.97938E-04   -0.18067E-04 14568   0.430E-02
  34 F= -.62805603E+03 E0= -.62805603E+03  d E =-.224941E-02  mag=    19.9998
       N       E                     dE             d eps       ncg     rms          rms(c)
DAV:   1    -0.628055434591E+03    0.69648E-03   -0.70572E-02 21624   0.532E-01    0.621E-02
DAV:   2    -0.628055638624E+03   -0.20403E-03   -0.24208E-03 26448   0.111E-01    0.647E-02
DAV:   3    -0.628055626320E+03    0.12305E-04   -0.10225E-04 12192   0.280E-02
  35 F= -.62805563E+03 E0= -.62805563E+03  d E =0.406811E-03  mag=    19.9998
       N       E                     dE             d eps       ncg     rms          rms(c)
DAV:   1    -0.628055527748E+03    0.11088E-03   -0.87971E-03 21624   0.181E-01    0.441E-02
DAV:   2    -0.628055569674E+03   -0.41926E-04   -0.65106E-04 25932   0.592E-02
  36 F= -.62805557E+03 E0= -.62805557E+03  d E =0.566451E-04  mag=    19.9998
       N       E                     dE             d eps       ncg     rms          rms(c)
DAV:   1    -0.628055770189E+03   -0.24244E-03   -0.23896E-01 21540   0.966E-01    0.121E-01
DAV:   2    -0.628056434500E+03   -0.66431E-03   -0.70153E-03 26880   0.180E-01    0.938E-02
DAV:   3    -0.628056416349E+03    0.18151E-04   -0.34530E-04 20508   0.492E-02
  37 F= -.62805642E+03 E0= -.62805642E+03  d E =-.846675E-03  mag=    19.9998
       N       E                     dE             d eps       ncg     rms          rms(c)
DAV:   1    -0.628056721748E+03   -0.28725E-03   -0.87824E-02 21552   0.585E-01    0.880E-02
DAV:   2    -0.628056943395E+03   -0.22165E-03   -0.24790E-03 26892   0.109E-01    0.654E-02
DAV:   3    -0.628056930057E+03    0.13338E-04   -0.10786E-04 15060   0.314E-02
  38 F= -.62805693E+03 E0= -.62805693E+03  d E =-.513707E-03  mag=    19.9998
       N       E                     dE             d eps       ncg     rms          rms(c)
DAV:   1    -0.628056940333E+03    0.30615E-05   -0.36240E-01 21504   0.119E+00    0.157E-01
DAV:   2    -0.628057947363E+03   -0.10070E-02   -0.91422E-03 24084   0.198E-01    0.858E-02
DAV:   3    -0.628057969702E+03   -0.22339E-04   -0.29480E-04 18444   0.370E-02
  39 F= -.62805797E+03 E0= -.62805797E+03  d E =-.103965E-02  mag=    19.9998
       N       E                     dE             d eps       ncg     rms          rms(c)
DAV:   1    -0.628050833943E+03    0.71134E-02   -0.35988E+00 21504   0.374E+00    0.484E-01
DAV:   2    -0.628060889022E+03   -0.10055E-01   -0.91307E-02 23916   0.626E-01    0.262E-01
DAV:   3    -0.628061235022E+03   -0.34600E-03   -0.36800E-03 30600   0.119E-01    0.149E-01
DAV:   4    -0.628061047667E+03    0.18736E-03   -0.33189E-04 17940   0.488E-02    0.959E-02
DAV:   5    -0.628060920865E+03    0.12680E-03   -0.54079E-04 22440   0.700E-02    0.511E-02
DAV:   6    -0.628060935092E+03   -0.14227E-04   -0.20366E-04 14280   0.335E-02
  40 F= -.62806094E+03 E0= -.62806094E+03  d E =-.296539E-02  mag=    19.9999
       N       E                     dE             d eps       ncg     rms          rms(c)
DAV:   1    -0.628057410015E+03    0.35109E-02   -0.78188E-01 21504   0.174E+00    0.222E-01
DAV:   2    -0.628059617033E+03   -0.22070E-02   -0.19842E-02 23748   0.293E-01    0.125E-01
DAV:   3    -0.628059683794E+03   -0.66760E-04   -0.70060E-04 25104   0.531E-02
  41 F= -.62805968E+03 E0= -.62805968E+03  d E =0.125130E-02  mag=    19.9999
       N       E                     dE             d eps       ncg     rms          rms(c)
DAV:   1    -0.628059673058E+03   -0.56024E-04   -0.90842E-04 20124   0.649E-02    0.453E-02
DAV:   2    -0.628059651311E+03    0.21747E-04   -0.11074E-04 11976   0.264E-02
  42 F= -.62805965E+03 E0= -.62805965E+03  d E =0.324824E-04  mag=    19.9999
       N       E                     dE             d eps       ncg     rms          rms(c)
DAV:   1    -0.628059721594E+03   -0.48536E-04   -0.19582E-01 21504   0.872E-01    0.119E-01
DAV:   2    -0.628060300809E+03   -0.57922E-03   -0.51833E-03 24840   0.150E-01    0.674E-02
DAV:   3    -0.628060318635E+03   -0.17826E-04   -0.14206E-04 14448   0.302E-02
  43 F= -.62806032E+03 E0= -.62806032E+03  d E =-.667324E-03  mag=    19.9999
       N       E                     dE             d eps       ncg     rms          rms(c)
DAV:   1    -0.628060151003E+03    0.14981E-03   -0.82148E-03 21384   0.181E-01    0.383E-02
DAV:   2    -0.628060169898E+03   -0.18896E-04   -0.24226E-04 13884   0.380E-02
  44 F= -.62806017E+03 E0= -.62806017E+03  d E =0.148737E-03  mag=    19.9999
       N       E                     dE             d eps       ncg     rms          rms(c)
DAV:   1    -0.628060314584E+03   -0.16358E-03   -0.22351E-01 21504   0.937E-01    0.150E-01
DAV:   2    -0.628060829329E+03   -0.51474E-03   -0.67570E-03 26304   0.183E-01    0.113E-01
DAV:   3    -0.628060824642E+03    0.46868E-05   -0.37373E-04 20412   0.521E-02
  45 F= -.62806082E+03 E0= -.62806082E+03  d E =-.654744E-03  mag=    19.9999
       N       E                     dE             d eps       ncg     rms          rms(c)
DAV:   1    -0.628060902836E+03   -0.73507E-04   -0.10144E-02 21840   0.198E-01    0.506E-02
DAV:   2    -0.628060938611E+03   -0.35775E-04   -0.64189E-04 24756   0.603E-02
  46 F= -.62806094E+03 E0= -.62806094E+03  d E =-.113969E-03  mag=    19.9999
       N       E                     dE             d eps       ncg     rms          rms(c)
DAV:   1    -0.628061157928E+03   -0.25509E-03   -0.91692E-02 21504   0.599E-01    0.105E-01
DAV:   2    -0.628061352405E+03   -0.19448E-03   -0.26463E-03 26652   0.113E-01    0.642E-02
DAV:   3    -0.628061345935E+03    0.64705E-05   -0.12936E-04 15240   0.340E-02
  47 F= -.62806135E+03 E0= -.62806135E+03  d E =-.407324E-03  mag=    19.9999
       N       E                     dE             d eps       ncg     rms          rms(c)
DAV:   1    -0.628061399193E+03   -0.46788E-04   -0.10598E-03 19920   0.652E-02    0.284E-02
DAV:   2    -0.628061395544E+03    0.36489E-05   -0.45050E-05 11832   0.187E-02
  48 F= -.62806140E+03 E0= -.62806140E+03  d E =-.496092E-04  mag=    19.9999
       N       E                     dE             d eps       ncg     rms          rms(c)
DAV:   1    -0.628061541970E+03   -0.14278E-03   -0.76269E-02 21504   0.547E-01    0.627E-02
DAV:   2    -0.628061725664E+03   -0.18369E-03   -0.20858E-03 27420   0.989E-02    0.534E-02
DAV:   3    -0.628061720052E+03    0.56113E-05   -0.52870E-05 12036   0.245E-02
  49 F= -.62806172E+03 E0= -.62806172E+03  d E =-.324508E-03  mag=    19.9999
       N       E                     dE             d eps       ncg     rms          rms(c)
DAV:   1    -0.628062016575E+03   -0.29091E-03   -0.16248E-01 21504   0.802E-01    0.162E-01
DAV:   2    -0.628062272270E+03   -0.25570E-03   -0.51176E-03 26532   0.158E-01    0.100E-01
DAV:   3    -0.628062255906E+03    0.16365E-04   -0.31621E-04 19344   0.545E-02
  50 F= -.62806226E+03 E0= -.62806226E+03  d E =-.535853E-03  mag=    19.9999
       N       E                     dE             d eps       ncg     rms          rms(c)
DAV:   1    -0.628062346273E+03   -0.74003E-04   -0.39759E-03 21588   0.127E-01    0.499E-02
DAV:   2    -0.628062344783E+03    0.14898E-05   -0.36686E-04 20412   0.446E-02
  51 F= -.62806234E+03 E0= -.62806234E+03  d E =-.888779E-04  mag=    19.9999
       N       E                     dE             d eps       ncg     rms          rms(c)
DAV:   1    -0.628062535149E+03   -0.18888E-03   -0.26404E-02 21504   0.322E-01    0.771E-02
DAV:   2    -0.628062579017E+03   -0.43868E-04   -0.91135E-04 24864   0.709E-02
  52 F= -.62806258E+03 E0= -.62806258E+03  d E =-.234233E-03  mag=    19.9999
       N       E                     dE             d eps       ncg     rms          rms(c)
DAV:   1    -0.628062374133E+03    0.16102E-03   -0.13275E-01 21504   0.697E-01    0.184E-01
DAV:   2    -0.628062952867E+03   -0.57873E-03   -0.33580E-03 25980   0.129E-01    0.994E-02
DAV:   3    -0.628063020353E+03   -0.67486E-04   -0.17419E-04 15036   0.341E-02
  53 F= -.62806302E+03 E0= -.62806302E+03  d E =-.441337E-03  mag=    20.0000
       N       E                     dE             d eps       ncg     rms          rms(c)
DAV:   1    -0.628063164989E+03   -0.21212E-03   -0.14170E-02 21528   0.236E-01    0.444E-02
DAV:   2    -0.628063190499E+03   -0.25510E-04   -0.38917E-04 16188   0.467E-02
  54 F= -.62806319E+03 E0= -.62806319E+03  d E =-.170146E-03  mag=    20.0000
       N       E                     dE             d eps       ncg     rms          rms(c)
DAV:   1    -0.628063183392E+03   -0.18403E-04   -0.33992E-03 22188   0.113E-01    0.599E-02
DAV:   2    -0.628063165575E+03    0.17818E-04   -0.16450E-04 13032   0.360E-02
  55 F= -.62806317E+03 E0= -.62806317E+03  d E =0.249243E-04  mag=    20.0000
       N       E                     dE             d eps       ncg     rms          rms(c)
DAV:   1    -0.628063121841E+03    0.61551E-04   -0.86088E-02 21504   0.569E-01    0.136E-01
DAV:   2    -0.628063489953E+03   -0.36811E-03   -0.22597E-03 25752   0.107E-01    0.776E-02
DAV:   3    -0.628063524723E+03   -0.34770E-04   -0.89004E-05 13620   0.270E-02
  56 F= -.62806352E+03 E0= -.62806352E+03  d E =-.359148E-03  mag=    20.0000
       N       E                     dE             d eps       ncg     rms          rms(c)
DAV:   1    -0.628063608606E+03   -0.11865E-03   -0.15842E-01 21504   0.786E-01    0.935E-02
DAV:   2    -0.628064016516E+03   -0.40791E-03   -0.44058E-03 26568   0.143E-01    0.743E-02
DAV:   3    -0.628064005250E+03    0.11266E-04   -0.17962E-04 14892   0.361E-02
  57 F= -.62806401E+03 E0= -.62806401E+03  d E =-.480527E-03  mag=    20.0000
       N       E                     dE             d eps       ncg     rms          rms(c)
DAV:   1    -0.628064083193E+03   -0.66677E-04   -0.15026E-02 21480   0.237E-01    0.511E-02
DAV:   2    -0.628064124713E+03   -0.41520E-04   -0.63746E-04 24384   0.604E-02
  58 F= -.62806412E+03 E0= -.62806412E+03  d E =-.119463E-03  mag=    20.0000
       N       E                     dE             d eps       ncg     rms          rms(c)
DAV:   1    -0.628064266969E+03   -0.18378E-03   -0.51281E-02 21504   0.447E-01    0.654E-02
DAV:   2    -0.628064390349E+03   -0.12338E-03   -0.13280E-03 25044   0.798E-02    0.444E-02
DAV:   3    -0.628064389602E+03    0.74696E-06   -0.67942E-05 12480   0.212E-02
  59 F= -.62806439E+03 E0= -.62806439E+03  d E =-.264889E-03  mag=    20.0000
       N       E                     dE             d eps       ncg     rms          rms(c)
DAV:   1    -0.628064504511E+03   -0.11416E-03   -0.17301E-02 21552   0.260E-01    0.456E-02
DAV:   2    -0.628064546192E+03   -0.41681E-04   -0.43869E-04 17592   0.491E-02
  60 F= -.62806455E+03 E0= -.62806455E+03  d E =-.156589E-03  mag=    20.0000
       N       E                     dE             d eps       ncg     rms          rms(c)
DAV:   1    -0.628064116423E+03    0.38809E-03   -0.19878E-01 21504   0.863E-01    0.222E-01
DAV:   2    -0.628064815445E+03   -0.69902E-03   -0.53913E-03 26688   0.169E-01    0.136E-01
DAV:   3    -0.628064892440E+03   -0.76995E-04   -0.50689E-04 22848   0.531E-02
  61 F= -.62806489E+03 E0= -.62806489E+03  d E =-.346248E-03  mag=    20.0000
       N       E                     dE             d eps       ncg     rms          rms(c)
DAV:   1    -0.628065062655E+03   -0.24721E-03   -0.59199E-02 21504   0.478E-01    0.818E-02
DAV:   2    -0.628065258279E+03   -0.19562E-03   -0.19549E-03 26616   0.101E-01    0.769E-02
DAV:   3    -0.628065245950E+03    0.12328E-04   -0.99823E-05 12600   0.295E-02
  62 F= -.62806525E+03 E0= -.62806525E+03  d E =-.353511E-03  mag=    20.0000
       N       E                     dE             d eps       ncg     rms          rms(c)
DAV:   1    -0.628063134711E+03    0.21236E-02   -0.34802E-01 21504   0.115E+00    0.233E-01
DAV:   2    -0.628064444916E+03   -0.13102E-02   -0.90156E-03 25176   0.204E-01    0.126E-01
DAV:   3    -0.628064584570E+03   -0.13965E-03   -0.49006E-04 22080   0.513E-02    0.526E-02
DAV:   4    -0.628064570874E+03    0.13696E-04   -0.52065E-05 12000   0.223E-02
  63 F= -.62806457E+03 E0= -.62806457E+03  d E =0.675076E-03  mag=    20.0000
       N       E                     dE             d eps       ncg     rms          rms(c)
DAV:   1    -0.628064235137E+03    0.34943E-03   -0.51578E-02 21504   0.437E-01    0.156E-01
DAV:   2    -0.628064335020E+03   -0.99883E-04   -0.18960E-03 28380   0.112E-01    0.109E-01
DAV:   3    -0.628064339328E+03   -0.43081E-05   -0.21528E-04 17184   0.467E-02
  64 F= -.62806434E+03 E0= -.62806434E+03  d E =0.231546E-03  mag=    20.0000
       N       E                     dE             d eps       ncg     rms          rms(c)
DAV:   1    -0.628063177957E+03    0.11571E-02   -0.21072E-01 21504   0.905E-01    0.179E-01
DAV:   2    -0.628063804067E+03   -0.62611E-03   -0.59925E-03 25884   0.172E-01    0.112E-01
DAV:   3    -0.628063836429E+03   -0.32362E-04   -0.32083E-04 18360   0.506E-02
  65 F= -.62806384E+03 E0= -.62806384E+03  d E =0.502899E-03  mag=    20.0000
       N       E                     dE             d eps       ncg     rms          rms(c)
DAV:   1    -0.628063542516E+03    0.26155E-03   -0.29301E-02 21504   0.336E-01    0.764E-02
DAV:   2    -0.628063625487E+03   -0.82971E-04   -0.89662E-04 25440   0.756E-02
  66 F= -.62806363E+03 E0= -.62806363E+03  d E =0.210942E-03  mag=    20.0000
       N       E                     dE             d eps       ncg     rms          rms(c)
DAV:   1    -0.628063824867E+03   -0.28235E-03   -0.13708E-01 21504   0.738E-01    0.117E-01
DAV:   2    -0.628064119321E+03   -0.29445E-03   -0.41330E-03 25608   0.139E-01    0.700E-02
DAV:   3    -0.628064116634E+03    0.26867E-05   -0.17412E-04 15732   0.413E-02
  67 F= -.62806412E+03 E0= -.62806412E+03  d E =-.491147E-03  mag=    20.0000
       N       E                     dE             d eps       ncg     rms          rms(c)
DAV:   1    -0.628064044759E+03    0.74562E-04   -0.27562E-03 21336   0.107E-01    0.329E-02
DAV:   2    -0.628064041972E+03    0.27868E-05   -0.94372E-05 12480   0.275E-02
  68 F= -.62806404E+03 E0= -.62806404E+03  d E =0.746623E-04  mag=    20.0000
       N       E                     dE             d eps       ncg     rms          rms(c)
DAV:   1    -0.628064105540E+03   -0.60781E-04   -0.91767E-02 21504   0.593E-01    0.110E-01
DAV:   2    -0.628064406692E+03   -0.30115E-03   -0.27085E-03 27888   0.122E-01    0.930E-02
DAV:   3    -0.628064408001E+03   -0.13093E-05   -0.19948E-04 15696   0.376E-02
  69 F= -.62806441E+03 E0= -.62806441E+03  d E =-.366029E-03  mag=    20.0000
       N       E                     dE             d eps       ncg     rms          rms(c)
DAV:   1    -0.628064530968E+03   -0.12428E-03   -0.15154E-02 21504   0.243E-01    0.499E-02
DAV:   2    -0.628064577303E+03   -0.46336E-04   -0.61107E-04 22944   0.566E-02
  70 F= -.62806458E+03 E0= -.62806458E+03  d E =-.169302E-03  mag=    20.0000
       N       E                     dE             d eps       ncg     rms          rms(c)
DAV:   1    -0.628064691663E+03   -0.16070E-03   -0.15502E-02 21504   0.244E-01    0.713E-02
DAV:   2    -0.628064718408E+03   -0.26744E-04   -0.57280E-04 22992   0.554E-02
  71 F= -.62806472E+03 E0= -.62806472E+03  d E =-.141104E-03  mag=    20.0000
       N       E                     dE             d eps       ncg     rms          rms(c)
DAV:   1    -0.628064554362E+03    0.13730E-03   -0.10809E-01 21504   0.631E-01    0.163E-01
DAV:   2    -0.628065047533E+03   -0.49317E-03   -0.27511E-03 25236   0.113E-01    0.838E-02
DAV:   3    -0.628065100536E+03   -0.53004E-04   -0.10169E-04 13548   0.254E-02
  72 F= -.62806510E+03 E0= -.62806510E+03  d E =-.382129E-03  mag=    20.0000
       N       E                     dE             d eps       ncg     rms          rms(c)
DAV:   1    -0.628065186855E+03   -0.13932E-03   -0.77804E-03 21384   0.174E-01    0.305E-02
DAV:   2    -0.628065200680E+03   -0.13825E-04   -0.17486E-04 13536   0.309E-02
  73 F= -.62806520E+03 E0= -.62806520E+03  d E =-.100144E-03  mag=    20.0000
       N       E                     dE             d eps       ncg     rms          rms(c)
DAV:   1    -0.628065352303E+03   -0.16545E-03   -0.29374E-02 21504   0.343E-01    0.706E-02
DAV:   2    -0.628065391109E+03   -0.38806E-04   -0.11174E-03 26892   0.768E-02    0.624E-02
DAV:   3    -0.628065378442E+03    0.12668E-04   -0.76134E-05 12756   0.279E-02
  74 F= -.62806538E+03 E0= -.62806538E+03  d E =-.177762E-03  mag=    20.0000
       N       E                     dE             d eps       ncg     rms          rms(c)
DAV:   1    -0.628065469090E+03   -0.77981E-04   -0.20491E-02 21504   0.281E-01    0.533E-02
DAV:   2    -0.628065527888E+03   -0.58798E-04   -0.54717E-04 21576   0.551E-02
  75 F= -.62806553E+03 E0= -.62806553E+03  d E =-.149447E-03  mag=    20.0000
       N       E                     dE             d eps       ncg     rms          rms(c)
DAV:   1    -0.628064876885E+03    0.59221E-03   -0.30697E-01 21504   0.108E+00    0.216E-01
DAV:   2    -0.628066011703E+03   -0.11348E-02   -0.79926E-03 25068   0.190E-01    0.117E-01
DAV:   3    -0.628066103721E+03   -0.92018E-04   -0.32853E-04 18900   0.411E-02
  76 F= -.62806610E+03 E0= -.62806610E+03  d E =-.575832E-03  mag=    20.0000
       N       E                     dE             d eps       ncg     rms          rms(c)
DAV:   1    -0.628064024092E+03    0.19876E-02   -0.36936E-01 21504   0.119E+00    0.223E-01
DAV:   2    -0.628065366044E+03   -0.13420E-02   -0.10160E-02 24672   0.217E-01    0.124E-01
DAV:   3    -0.628065476858E+03   -0.11081E-03   -0.38395E-04 19608   0.509E-02    0.552E-02
DAV:   4    -0.628065468229E+03    0.86289E-05   -0.59014E-05 11280   0.217E-02
  77 F= -.62806547E+03 E0= -.62806547E+03  d E =0.635492E-03  mag=    20.0000
       N       E                     dE             d eps       ncg     rms          rms(c)
DAV:   1    -0.628065737167E+03   -0.26031E-03   -0.55677E-02 21504   0.475E-01    0.157E-01
DAV:   2    -0.628065583043E+03    0.15412E-03   -0.29034E-03 29076   0.130E-01    0.124E-01
DAV:   3    -0.628065537489E+03    0.45554E-04   -0.30049E-04 20172   0.551E-02
  78 F= -.62806554E+03 E0= -.62806554E+03  d E =-.692602E-04  mag=    20.0000
       N       E                     dE             d eps       ncg     rms          rms(c)
DAV:   1    -0.628065496364E+03    0.86679E-04   -0.13362E-02 21504   0.223E-01    0.577E-02
DAV:   2    -0.628065559660E+03   -0.63296E-04   -0.75898E-04 25176   0.613E-02
  79 F= -.62806556E+03 E0= -.62806556E+03  d E =-.221707E-04  mag=    20.0000
       N       E                     dE             d eps       ncg     rms          rms(c)
DAV:   1    -0.628065697574E+03   -0.20121E-03   -0.50377E-02 21504   0.446E-01    0.873E-02
DAV:   2    -0.628065825898E+03   -0.12832E-03   -0.16200E-03 26304   0.875E-02    0.487E-02
DAV:   3    -0.628065821879E+03    0.40190E-05   -0.76403E-05 13896   0.298E-02
  80 F= -.62806582E+03 E0= -.62806582E+03  d E =-.262219E-03  mag=    20.0000
       N       E                     dE             d eps       ncg     rms          rms(c)
DAV:   1    -0.628065944468E+03   -0.11857E-03   -0.92829E-02 21504   0.605E-01    0.106E-01
DAV:   2    -0.628066140406E+03   -0.19594E-03   -0.27072E-03 26520   0.112E-01    0.690E-02
DAV:   3    -0.628066129948E+03    0.10457E-04   -0.10241E-04 14820   0.328E-02
  81 F= -.62806613E+03 E0= -.62806613E+03  d E =-.308070E-03  mag=    20.0000
       N       E                     dE             d eps       ncg     rms          rms(c)
DAV:   1    -0.628066202524E+03   -0.62118E-04   -0.52882E-03 20976   0.143E-01    0.297E-02
DAV:   2    -0.628066210218E+03   -0.76939E-05   -0.14265E-04 12504   0.295E-02
  82 F= -.62806621E+03 E0= -.62806621E+03  d E =-.802691E-04  mag=    20.0000
       N       E                     dE             d eps       ncg     rms          rms(c)
DAV:   1    -0.628066310166E+03   -0.10764E-03   -0.29985E-02 21552   0.343E-01    0.521E-02
DAV:   2    -0.628066380645E+03   -0.70479E-04   -0.86569E-04 25032   0.647E-02
  83 F= -.62806638E+03 E0= -.62806638E+03  d E =-.170427E-03  mag=    20.0000
       N       E                     dE             d eps       ncg     rms          rms(c)
DAV:   1    -0.628066603786E+03   -0.29362E-03   -0.74914E-03 22560   0.194E-01    0.119E-01
DAV:   2    -0.628066408474E+03    0.19531E-03   -0.12184E-03 30084   0.832E-02    0.856E-02
DAV:   3    -0.628066366731E+03    0.41744E-04   -0.18447E-04 17148   0.438E-02
  84 F= -.62806637E+03 E0= -.62806637E+03  d E =0.139138E-04  mag=    20.0000
       N       E                     dE             d eps       ncg     rms          rms(c)
DAV:   1    -0.628066539384E+03   -0.13091E-03   -0.19754E-02 21504   0.283E-01    0.677E-02
DAV:   2    -0.628066545610E+03   -0.62254E-05   -0.73827E-04 25008   0.648E-02
  85 F= -.62806655E+03 E0= -.62806655E+03  d E =-.178879E-03  mag=    20.0000
       N       E                     dE             d eps       ncg     rms          rms(c)
DAV:   1    -0.628066589667E+03   -0.50283E-04   -0.38913E-02 21516   0.384E-01    0.117E-01
DAV:   2    -0.628066697965E+03   -0.10830E-03   -0.12212E-03 25236   0.801E-02    0.660E-02
DAV:   3    -0.628066706772E+03   -0.88069E-05   -0.80671E-05 14268   0.308E-02
  86 F= -.62806671E+03 E0= -.62806671E+03  d E =-.161162E-03  mag=    20.0000
       N       E                     dE             d eps       ncg     rms          rms(c)
DAV:   1    -0.628066802462E+03   -0.10450E-03   -0.51270E-02 21504   0.448E-01    0.501E-02
DAV:   2    -0.628066938487E+03   -0.13602E-03   -0.15136E-03 25956   0.881E-02    0.515E-02
DAV:   3    -0.628066931527E+03    0.69599E-05   -0.58656E-05 11904   0.221E-02
  87 F= -.62806693E+03 E0= -.62806693E+03  d E =-.224755E-03  mag=    20.0000
       N       E                     dE             d eps       ncg     rms          rms(c)
DAV:   1    -0.628066991271E+03   -0.52784E-04   -0.18070E-03 22644   0.888E-02    0.403E-02
DAV:   2    -0.628066971549E+03    0.19722E-04   -0.12598E-04 12408   0.304E-02
  88 F= -.62806697E+03 E0= -.62806697E+03  d E =-.400220E-04  mag=    20.0000
       N       E                     dE             d eps       ncg     rms          rms(c)
DAV:   1    -0.628066804953E+03    0.18632E-03   -0.41019E-02 21504   0.384E-01    0.103E-01
DAV:   2    -0.628066920068E+03   -0.11511E-03   -0.18402E-03 27924   0.104E-01    0.121E-01
DAV:   3    -0.628066901747E+03    0.18321E-04   -0.17759E-04 15408   0.335E-02
  89 F= -.62806690E+03 E0= -.62806690E+03  d E =0.698020E-04  mag=    20.0000
       N       E                     dE             d eps       ncg     rms          rms(c)
DAV:   1    -0.628067181967E+03   -0.26190E-03   -0.85104E-02 21504   0.556E-01    0.133E-01
DAV:   2    -0.628067301332E+03   -0.11936E-03   -0.47271E-03 28716   0.153E-01    0.156E-01
DAV:   3    -0.628067226453E+03    0.74878E-04   -0.42260E-04 21780   0.510E-02
  90 F= -.62806723E+03 E0= -.62806723E+03  d E =-.324706E-03  mag=    20.0000
       N       E                     dE             d eps       ncg     rms          rms(c)
DAV:   1    -0.628067311184E+03   -0.98525E-05   -0.32377E-02 21504   0.356E-01    0.739E-02
DAV:   2    -0.628067446738E+03   -0.13555E-03   -0.15098E-03 29364   0.817E-02    0.691E-02
DAV:   3    -0.628067415030E+03    0.31708E-04   -0.92022E-05 13956   0.296E-02
  91 F= -.62806742E+03 E0= -.62806742E+03  d E =-.188576E-03  mag=    20.0000
       N       E                     dE             d eps       ncg     rms          rms(c)
DAV:   1    -0.628067571865E+03   -0.12513E-03   -0.61816E-02 21504   0.496E-01    0.115E-01
DAV:   2    -0.628067593280E+03   -0.21415E-04   -0.20661E-03 27228   0.107E-01    0.806E-02
DAV:   3    -0.628067575386E+03    0.17894E-04   -0.15126E-04 15912   0.381E-02
  92 F= -.62806758E+03 E0= -.62806758E+03  d E =-.160356E-03  mag=    20.0000
       N       E                     dE             d eps       ncg     rms          rms(c)
DAV:   1    -0.628067709158E+03   -0.11588E-03   -0.11027E-02 21504   0.204E-01    0.535E-02
DAV:   2    -0.628067713666E+03   -0.45078E-05   -0.52042E-04 21492   0.548E-02
  93 F= -.62806771E+03 E0= -.62806771E+03  d E =-.138280E-03  mag=    20.0000
       N       E                     dE             d eps       ncg     rms          rms(c)
DAV:   1    -0.628067757736E+03   -0.48578E-04   -0.35001E-03 20928   0.118E-01    0.312E-02
DAV:   2    -0.628067760575E+03   -0.28388E-05   -0.10626E-04 12060   0.276E-02
  94 F= -.62806776E+03 E0= -.62806776E+03  d E =-.469089E-04  mag=    20.0000
       N       E                     dE             d eps       ncg     rms          rms(c)
DAV:   1    -0.628067786551E+03   -0.28815E-04   -0.55247E-02 21528   0.461E-01    0.825E-02
DAV:   2    -0.628067968289E+03   -0.18174E-03   -0.14436E-03 25392   0.815E-02    0.525E-02
DAV:   3    -0.628067977903E+03   -0.96141E-05   -0.58323E-05 12828   0.199E-02
  95 F= -.62806798E+03 E0= -.62806798E+03  d E =-.217328E-03  mag=    20.0000
       N       E                     dE             d eps       ncg     rms          rms(c)
DAV:   1    -0.628067838502E+03    0.12979E-03   -0.20716E-02 21504   0.290E-01    0.798E-02
DAV:   2    -0.628067841293E+03   -0.27919E-05   -0.84177E-04 24348   0.691E-02
  96 F= -.62806784E+03 E0= -.62806784E+03  d E =0.136609E-03  mag=    20.0000
       N       E                     dE             d eps       ncg     rms          rms(c)
DAV:   1    -0.628067809476E+03    0.29026E-04   -0.21607E-03 20904   0.813E-02    0.433E-02
DAV:   2    -0.628067824536E+03   -0.15060E-04   -0.55072E-05 13380   0.252E-02
  97 F= -.62806782E+03 E0= -.62806782E+03  d E =0.167577E-04  mag=    20.0000
       N       E                     dE             d eps       ncg     rms          rms(c)
DAV:   1    -0.628067969026E+03   -0.15955E-03   -0.52728E-02 21504   0.459E-01    0.893E-02
DAV:   2    -0.628068015545E+03   -0.46519E-04   -0.18089E-03 27216   0.962E-02    0.675E-02
DAV:   3    -0.628067999269E+03    0.16277E-04   -0.10091E-04 13488   0.325E-02
  98 F= -.62806800E+03 E0= -.62806800E+03  d E =-.174733E-03  mag=    20.0000
       N       E                     dE             d eps       ncg     rms          rms(c)
DAV:   1    -0.628068075089E+03   -0.59544E-04   -0.11593E-02 21504   0.211E-01    0.410E-02
DAV:   2    -0.628068115918E+03   -0.40829E-04   -0.40232E-04 19404   0.464E-02
  99 F= -.62806812E+03 E0= -.62806812E+03  d E =-.116649E-03  mag=    20.0000
       N       E                     dE             d eps       ncg     rms          rms(c)
DAV:   1    -0.628068165027E+03   -0.89938E-04   -0.16522E-03 20688   0.816E-02    0.341E-02
DAV:   2    -0.628068157882E+03    0.71450E-05   -0.85978E-05 11892   0.267E-02
 100 F= -.62806816E+03 E0= -.62806816E+03  d E =-.419635E-04  mag=    20.0000
       N       E                     dE             d eps       ncg     rms          rms(c)
DAV:   1    -0.628068413236E+03   -0.24821E-03   -0.39747E-02 21840   0.404E-01    0.136E-01
DAV:   2    -0.628068320249E+03    0.92987E-04   -0.19084E-03 31056   0.102E-01    0.924E-02
DAV:   3    -0.628068294345E+03    0.25903E-04   -0.21250E-04 17700   0.462E-02
 101 F= -.62806829E+03 E0= -.62806829E+03  d E =-.136464E-03  mag=    20.0000
       N       E                     dE             d eps       ncg     rms          rms(c)
DAV:   1    -0.628068428264E+03   -0.10802E-03   -0.11267E-02 21720   0.217E-01    0.618E-02
DAV:   2    -0.628068410749E+03    0.17515E-04   -0.48641E-04 22872   0.577E-02
 102 F= -.62806841E+03 E0= -.62806841E+03  d E =-.116404E-03  mag=    20.0000
       N       E                     dE             d eps       ncg     rms          rms(c)
DAV:   1    -0.628068464631E+03   -0.36367E-04   -0.17285E-02 21552   0.262E-01    0.501E-02
DAV:   2    -0.628068499736E+03   -0.35105E-04   -0.57359E-04 20244   0.589E-02
 103 F= -.62806850E+03 E0= -.62806850E+03  d E =-.889867E-04  mag=    20.0000
       N       E                     dE             d eps       ncg     rms          rms(c)
DAV:   1    -0.628068534636E+03   -0.70005E-04   -0.29506E-02 21516   0.338E-01    0.740E-02
DAV:   2    -0.628068629825E+03   -0.95189E-04   -0.99805E-04 26844   0.873E-02
 104 F= -.62806863E+03 E0= -.62806863E+03  d E =-.130089E-03  mag=    20.0000
       N       E                     dE             d eps       ncg     rms          rms(c)
DAV:   1    -0.628068678493E+03   -0.14386E-03   -0.43446E-03 21552   0.129E-01    0.401E-02
DAV:   2    -0.628068683960E+03   -0.54667E-05   -0.13228E-04 13332   0.312E-02
 105 F= -.62806868E+03 E0= -.62806868E+03  d E =-.541353E-04  mag=    20.0000
       N       E                     dE             d eps       ncg     rms          rms(c)
DAV:   1    -0.628068747047E+03   -0.68554E-04   -0.34058E-02 21516   0.364E-01    0.555E-02
DAV:   2    -0.628068845364E+03   -0.98317E-04   -0.88038E-04 22776   0.631E-02
 106 F= -.62806885E+03 E0= -.62806885E+03  d E =-.161404E-03  mag=    20.0000
       N       E                     dE             d eps       ncg     rms          rms(c)
DAV:   1    -0.628068876705E+03   -0.12966E-03   -0.72865E-04 19632   0.536E-02    0.251E-02
DAV:   2    -0.628068871214E+03    0.54909E-05   -0.38753E-05 11364   0.181E-02
 107 F= -.62806887E+03 E0= -.62806887E+03  d E =-.258500E-04  mag=    20.0000
       N       E                     dE             d eps       ncg     rms          rms(c)
DAV:   1    -0.628068732818E+03    0.14389E-03   -0.14356E-02 21528   0.238E-01    0.393E-02
DAV:   2    -0.628068765860E+03   -0.33042E-04   -0.40994E-04 16416   0.484E-02
 108 F= -.62806877E+03 E0= -.62806877E+03  d E =0.105354E-03  mag=    20.0000
       N       E                     dE             d eps       ncg     rms          rms(c)
DAV:   1    -0.628068765404E+03   -0.32586E-04   -0.14418E-02 21516   0.227E-01    0.703E-02
DAV:   2    -0.628068839494E+03   -0.74090E-04   -0.33258E-04 16452   0.432E-02
 109 F= -.62806884E+03 E0= -.62806884E+03  d E =-.736339E-04  mag=    20.0000
       N       E                     dE             d eps       ncg     rms          rms(c)
DAV:   1    -0.628068947052E+03   -0.18165E-03   -0.32391E-02 21504   0.358E-01    0.649E-02
DAV:   2    -0.628069006741E+03   -0.59690E-04   -0.11269E-03 25728   0.775E-02    0.553E-02
DAV:   3    -0.628068999697E+03    0.70441E-05   -0.70930E-05 12192   0.262E-02
 110 F= -.62806900E+03 E0= -.62806900E+03  d E =-.160203E-03  mag=    20.0000
       N       E                     dE             d eps       ncg     rms          rms(c)
DAV:   1    -0.628069004569E+03    0.21727E-05   -0.20442E-04 13812   0.286E-02    0.311E-02
DAV:   2    -0.628069003061E+03    0.15076E-05   -0.29233E-05 11760   0.171E-02
 111 F= -.62806900E+03 E0= -.62806900E+03  d E =-.336378E-05  mag=    20.0000
       N       E                     dE             d eps       ncg     rms          rms(c)
DAV:   1    -0.628069077268E+03   -0.72699E-04   -0.58644E-03 21528   0.156E-01    0.578E-02
DAV:   2    -0.628069040905E+03    0.36363E-04   -0.24756E-04 12852   0.428E-02
 112 F= -.62806904E+03 E0= -.62806904E+03  d E =-.378437E-04  mag=    20.0000
       N       E                     dE             d eps       ncg     rms          rms(c)
DAV:   1    -0.628069071692E+03    0.55758E-05   -0.29662E-02 21504   0.342E-01    0.586E-02
DAV:   2    -0.628069152189E+03   -0.80497E-04   -0.94871E-04 25272   0.704E-02
 113 F= -.62806915E+03 E0= -.62806915E+03  d E =-.111284E-03  mag=    20.0000
       N       E                     dE             d eps       ncg     rms          rms(c)
DAV:   1    -0.628069203737E+03   -0.13204E-03   -0.90068E-03 21504   0.185E-01    0.336E-02
DAV:   2    -0.628069228973E+03   -0.25236E-04   -0.38601E-04 19104   0.486E-02
 114 F= -.62806923E+03 E0= -.62806923E+03  d E =-.767835E-04  mag=    20.0000
       N       E                     dE             d eps       ncg     rms          rms(c)
DAV:   1    -0.628069582290E+03   -0.37855E-03   -0.21120E-02 21864   0.309E-01    0.158E-01
DAV:   2    -0.628069275128E+03    0.30716E-03   -0.23198E-03 31872   0.121E-01    0.124E-01
DAV:   3    -0.628069211592E+03    0.63536E-04   -0.36222E-04 21396   0.558E-02
 115 F= -.62806921E+03 E0= -.62806921E+03  d E =0.173813E-04  mag=    20.0000
       N       E                     dE             d eps       ncg     rms          rms(c)
DAV:   1    -0.628069370299E+03   -0.95171E-04   -0.13167E-02 21540   0.233E-01    0.648E-02
DAV:   2    -0.628069374122E+03   -0.38231E-05   -0.79352E-04 26520   0.720E-02
 116 F= -.62806937E+03 E0= -.62806937E+03  d E =-.162530E-03  mag=    20.0000
       N       E                     dE             d eps       ncg     rms          rms(c)
DAV:   1    -0.628069472357E+03   -0.10206E-03   -0.34930E-02 21516   0.376E-01    0.111E-01
DAV:   2    -0.628069441582E+03    0.30775E-04   -0.12759E-03 26316   0.843E-02    0.677E-02
DAV:   3    -0.628069425305E+03    0.16277E-04   -0.11610E-04 14856   0.355E-02
 117 F= -.62806943E+03 E0= -.62806943E+03  d E =-.511838E-04  mag=    20.0000
       N       E                     dE             d eps       ncg     rms          rms(c)
DAV:   1    -0.628069541577E+03   -0.99995E-04   -0.82382E-03 21540   0.179E-01    0.481E-02
DAV:   2    -0.628069537391E+03    0.41857E-05   -0.30604E-04 15312   0.438E-02
 118 F= -.62806954E+03 E0= -.62806954E+03  d E =-.112086E-03  mag=    20.0000
       N       E                     dE             d eps       ncg     rms          rms(c)
DAV:   1    -0.628069564423E+03   -0.22846E-04   -0.45183E-04 18516   0.471E-02    0.282E-02
DAV:   2    -0.628069554979E+03    0.94440E-05   -0.49534E-05 11184   0.229E-02
 119 F= -.62806955E+03 E0= -.62806955E+03  d E =-.175881E-04  mag=    20.0000
       N       E                     dE             d eps       ncg     rms          rms(c)
DAV:   1    -0.628069636982E+03   -0.72559E-04   -0.36861E-02 21504   0.384E-01    0.708E-02
DAV:   2    -0.628069689064E+03   -0.52082E-04   -0.11339E-03 24996   0.740E-02    0.427E-02
DAV:   3    -0.628069683076E+03    0.59876E-05   -0.52839E-05 12480   0.224E-02
 120 F= -.62806968E+03 E0= -.62806968E+03  d E =-.128097E-03  mag=    20.0000
       N       E                     dE             d eps       ncg     rms          rms(c)
DAV:   1    -0.628069736994E+03   -0.47930E-04   -0.45570E-03 21168   0.132E-01    0.246E-02
DAV:   2    -0.628069743848E+03   -0.68547E-05   -0.13681E-04 12240   0.290E-02
 121 F= -.62806974E+03 E0= -.62806974E+03  d E =-.607722E-04  mag=    20.0000
       N       E                     dE             d eps       ncg     rms          rms(c)
DAV:   1    -0.628069780750E+03   -0.43756E-04   -0.31005E-03 20904   0.110E-01    0.306E-02
DAV:   2    -0.628069786551E+03   -0.58009E-05   -0.91660E-05 12108   0.245E-02
 122 F= -.62806979E+03 E0= -.62806979E+03  d E =-.427026E-04  mag=    20.0000
       N       E                     dE             d eps       ncg     rms          rms(c)
DAV:   1    -0.628069806538E+03   -0.25788E-04   -0.12082E-03 19548   0.676E-02    0.232E-02
DAV:   2    -0.628069812471E+03   -0.59332E-05   -0.40591E-05 11292   0.172E-02
 123 F= -.62806981E+03 E0= -.62806981E+03  d E =-.259203E-04  mag=    20.0000
       N       E                     dE             d eps       ncg     rms          rms(c)
DAV:   1    -0.628069851052E+03   -0.44514E-04   -0.22105E-02 21504   0.293E-01    0.489E-02
DAV:   2    -0.628069922882E+03   -0.71829E-04   -0.57119E-04 20760   0.509E-02
 124 F= -.62806992E+03 E0= -.62806992E+03  d E =-.110410E-03  mag=    20.0000
       N       E                     dE             d eps       ncg     rms          rms(c)
DAV:   1    -0.628069956933E+03   -0.10588E-03   -0.22666E-03 20136   0.922E-02    0.277E-02
DAV:   2    -0.628069962957E+03   -0.60243E-05   -0.59471E-05 11328   0.196E-02
 125 F= -.62806996E+03 E0= -.62806996E+03  d E =-.400757E-04  mag=    20.0000
       N       E                     dE             d eps       ncg     rms          rms(c)
DAV:   1    -0.628069959785E+03   -0.28521E-05   -0.51273E-03 21036   0.130E-01    0.510E-02
DAV:   2    -0.628069994120E+03   -0.34334E-04   -0.11213E-04 13032   0.281E-02
 126 F= -.62806999E+03 E0= -.62806999E+03  d E =-.311620E-04  mag=    20.0000
       N       E                     dE             d eps       ncg     rms          rms(c)
DAV:   1    -0.628070068001E+03   -0.10822E-03   -0.26145E-02 21504   0.322E-01    0.572E-02
DAV:   2    -0.628070124272E+03   -0.56271E-04   -0.96617E-04 26364   0.726E-02
 127 F= -.62807012E+03 E0= -.62807012E+03  d E =-.130153E-03  mag=    20.0000
       N       E                     dE             d eps       ncg     rms          rms(c)
DAV:   1    -0.628070165671E+03   -0.97670E-04   -0.10485E-02 21528   0.202E-01    0.379E-02
DAV:   2    -0.628070194582E+03   -0.28911E-04   -0.41690E-04 21360   0.493E-02
 128 F= -.62807019E+03 E0= -.62807019E+03  d E =-.703101E-04  mag=    20.0000
       N       E                     dE             d eps       ncg     rms          rms(c)
DAV:   1    -0.628070250686E+03   -0.85015E-04   -0.11313E-02 21552   0.210E-01    0.277E-02
DAV:   2    -0.628070271318E+03   -0.20632E-04   -0.30958E-04 15816   0.416E-02
 129 F= -.62807027E+03 E0= -.62807027E+03  d E =-.767362E-04  mag=    20.0000
       N       E                     dE             d eps       ncg     rms          rms(c)
DAV:   1    -0.628070328447E+03   -0.77760E-04   -0.15303E-02 21516   0.244E-01    0.281E-02
DAV:   2    -0.628070361460E+03   -0.33013E-04   -0.41376E-04 16320   0.463E-02
 130 F= -.62807036E+03 E0= -.62807036E+03  d E =-.901415E-04  mag=    20.0000
