       N       E                     dE             d eps       ncg     rms          rms(c)
DAV:   1     0.551524950327E+04    0.55152E+04   -0.19752E+05 21504   0.125E+03
DAV:   2     0.491415354883E+03   -0.50238E+04   -0.46277E+04 22200   0.349E+02
DAV:   3    -0.722333840189E+03   -0.12137E+04   -0.11761E+04 25080   0.178E+02
DAV:   4    -0.825079970680E+03   -0.10275E+03   -0.10127E+03 32160   0.592E+01
DAV:   5    -0.828904542531E+03   -0.38246E+01   -0.37798E+01 34044   0.128E+01
DAV:   6    -0.829069710512E+03   -0.16517E+00   -0.16403E+00 34008   0.237E+00
DAV:   7    -0.829077999962E+03   -0.82895E-02   -0.82613E-02 34128   0.535E-01
DAV:   8    -0.829078533857E+03   -0.53390E-03   -0.53298E-03 28092   0.119E-01
DAV:   9    -0.829078571260E+03   -0.37403E-04   -0.37342E-04 19968   0.362E-02
DAV:  10    -0.829078575299E+03   -0.40390E-05   -0.40221E-05 17736   0.168E-02
DAV:  11    -0.829078576835E+03   -0.15363E-05   -0.15290E-05 16536   0.115E-02
DAV:  12    -0.829078577718E+03   -0.88292E-06   -0.87965E-06 16056   0.865E-03    0.114E+02
DAV:  13    -0.621631181623E+03    0.20745E+03   -0.12769E+03 32232   0.819E+01    0.884E+01
DAV:  14    -0.694787282280E+03   -0.73156E+02   -0.14794E+03 35688   0.118E+02    0.127E+02
DAV:  15    -0.653736230460E+03    0.41051E+02   -0.62683E+02 34068   0.820E+01    0.566E+01
DAV:  16    -0.645831746188E+03    0.79045E+01   -0.16209E+02 33240   0.712E+01    0.950E+01
DAV:  17    -0.627569283989E+03    0.18262E+02   -0.29250E+02 31920   0.433E+01    0.418E+01
DAV:  18    -0.617191006647E+03    0.10378E+02   -0.11601E+02 33384   0.339E+01    0.247E+01
DAV:  19    -0.622111246937E+03   -0.49202E+01   -0.43323E+01 33264   0.278E+01    0.158E+01
DAV:  20    -0.622560092969E+03   -0.44885E+00   -0.20213E+01 33936   0.273E+01    0.158E+01
DAV:  21    -0.621666424830E+03    0.89367E+00   -0.18061E+01 33348   0.179E+01    0.294E+01
DAV:  22    -0.622044160775E+03   -0.37774E+00   -0.47298E+00 28188   0.390E+00    0.294E+01
DAV:  23    -0.622226743035E+03   -0.18258E+00   -0.49422E-01 32388   0.197E+00    0.303E+01
DAV:  24    -0.622144067824E+03    0.82675E-01   -0.38126E-01 34668   0.184E+00    0.284E+01
DAV:  25    -0.623614014119E+03   -0.14699E+01   -0.97132E+00 35484   0.772E+00    0.203E+01
DAV:  26    -0.622419738790E+03    0.11943E+01   -0.10811E+01 34572   0.111E+01    0.254E+01
DAV:  27    -0.625481824720E+03   -0.30621E+01   -0.68128E+00 31572   0.731E+00    0.255E+01
DAV:  28    -0.626717811348E+03   -0.12360E+01   -0.44131E+00 31812   0.757E+00    0.239E+01
DAV:  29    -0.626794751053E+03   -0.76940E-01   -0.88787E-01 32232   0.438E+00    0.224E+01
DAV:  30    -0.626640534670E+03    0.15422E+00   -0.25498E-01 31056   0.113E+00    0.219E+01
DAV:  31    -0.627246447404E+03   -0.60591E+00   -0.27432E+00 35520   0.310E+00    0.228E+01
DAV:  32    -0.627304147088E+03   -0.57700E-01   -0.17883E+00 30792   0.201E+00    0.222E+01
DAV:  33    -0.627581652682E+03   -0.27751E+00   -0.30057E+00 32664   0.125E+00    0.231E+01
DAV:  34    -0.627399653183E+03    0.18200E+00   -0.22732E+00 32928   0.309E+00    0.227E+01
DAV:  35    -0.627278828597E+03    0.12082E+00   -0.72040E-01 30264   0.122E+00    0.218E+01
DAV:  36    -0.627705520603E+03   -0.42669E+00   -0.12609E-01 29880   0.838E-01    0.219E+01
DAV:  37    -0.627737030799E+03   -0.31510E-01   -0.26057E-02 29388   0.399E-01    0.217E+01
DAV:  38    -0.627811017972E+03   -0.73987E-01   -0.81945E-02 33204   0.106E+00    0.215E+01
DAV:  39    -0.627669686128E+03    0.14133E+00   -0.32352E-02 28056   0.463E-01    0.215E+01
DAV:  40    -0.628059670490E+03   -0.38998E+00   -0.64945E-02 32688   0.679E-01    0.217E+01
DAV:  41    -0.627700924124E+03    0.35875E+00   -0.11245E-01 32628   0.129E+00    0.212E+01
DAV:  42    -0.625771049929E+03    0.19299E+01   -0.20028E+00 34044   0.730E+00    0.184E+01
DAV:  43    -0.624166638169E+03    0.16044E+01   -0.29719E+00 32820   0.711E+00    0.154E+01
DAV:  44    -0.624937886883E+03   -0.77125E+00   -0.20787E+00 29964   0.327E+00    0.138E+01
DAV:  45    -0.625355278347E+03   -0.41739E+00   -0.74891E-01 29220   0.188E+00    0.133E+01
DAV:  46    -0.624932000186E+03    0.42328E+00   -0.10811E+00 34740   0.342E+00    0.114E+01
DAV:  47    -0.624819738191E+03    0.11226E+00   -0.98838E-01 30060   0.221E+00    0.105E+01
DAV:  48    -0.624858456008E+03   -0.38718E-01   -0.28786E-01 30444   0.143E+00    0.980E+00
DAV:  49    -0.624982081117E+03   -0.12363E+00   -0.75660E-01 32904   0.324E+00    0.945E+00
DAV:  50    -0.625110801433E+03   -0.12872E+00   -0.15546E+00 33312   0.357E+00    0.111E+01
DAV:  51    -0.625250935189E+03   -0.14013E+00   -0.65662E-01 27660   0.152E+00    0.113E+01
DAV:  52    -0.625297909655E+03   -0.46974E-01   -0.71091E-02 29964   0.698E-01    0.107E+01
DAV:  53    -0.625367179477E+03   -0.69270E-01   -0.30869E-02 30180   0.608E-01    0.104E+01
DAV:  54    -0.625253776695E+03    0.11340E+00   -0.47224E-01 31224   0.179E+00    0.744E+00
DAV:  55    -0.624899589391E+03    0.35419E+00   -0.27434E-01 30096   0.165E+00    0.671E+00
DAV:  56    -0.624345698423E+03    0.55389E+00   -0.46571E-01 31668   0.176E+00    0.497E+00
DAV:  57    -0.623954535406E+03    0.39116E+00   -0.11708E+00 31368   0.170E+00    0.468E+00
DAV:  58    -0.623971704790E+03   -0.17169E-01   -0.23274E-01 30336   0.131E+00    0.421E+00
DAV:  59    -0.623910235710E+03    0.61469E-01   -0.76941E-02 28368   0.567E-01    0.410E+00
DAV:  60    -0.623638420148E+03    0.27182E+00   -0.22408E-01 31032   0.760E-01    0.474E+00
DAV:  61    -0.623404729492E+03    0.23369E+00   -0.78298E-02 30504   0.742E-01    0.461E+00
DAV:  62    -0.623417909397E+03   -0.13180E-01   -0.31157E-02 25344   0.325E-01    0.459E+00
DAV:  63    -0.622483999769E+03    0.93391E+00   -0.50467E-01 33852   0.272E+00    0.426E+00
DAV:  64    -0.622619958950E+03   -0.13596E+00   -0.40594E-01 27876   0.131E+00    0.460E+00
DAV:  65    -0.622622895099E+03   -0.29361E-02   -0.41767E-02 29268   0.392E-01    0.462E+00
DAV:  66    -0.622550957639E+03    0.71937E-01   -0.32891E-03 30060   0.128E-01    0.465E+00
DAV:  67    -0.622957087183E+03   -0.40613E+00   -0.37150E-02 28536   0.499E-01    0.421E+00
DAV:  68    -0.621345130054E+03    0.16120E+01   -0.10146E+00 32016   0.321E+00    0.492E+00
DAV:  69    -0.621402601760E+03   -0.57472E-01   -0.25702E-01 28200   0.978E-01    0.513E+00
DAV:  70    -0.621248182888E+03    0.15442E+00   -0.23064E-02 28044   0.402E-01    0.544E+00
DAV:  71    -0.621431080476E+03   -0.18290E+00   -0.47802E-02 35556   0.778E-01    0.533E+00
DAV:  72    -0.621643076277E+03   -0.21200E+00   -0.76506E-02 31044   0.611E-01    0.554E+00
DAV:  73    -0.621419273773E+03    0.22380E+00   -0.29070E-02 29628   0.512E-01    0.564E+00
DAV:  74    -0.621413341685E+03    0.59321E-02   -0.30771E-02 29748   0.498E-01    0.590E+00
DAV:  75    -0.621381648980E+03    0.31693E-01   -0.60826E-02 31464   0.623E-01    0.665E+00
DAV:  76    -0.621359960982E+03    0.21688E-01   -0.19124E-02 25152   0.244E-01    0.674E+00
DAV:  77    -0.621306550297E+03    0.53411E-01   -0.19680E-03 30288   0.949E-02    0.668E+00
DAV:  78    -0.622327781471E+03   -0.10212E+01   -0.12334E+00 26568   0.197E+00    0.682E+00
DAV:  79    -0.622115155269E+03    0.21263E+00   -0.22718E-01 25728   0.102E+00    0.630E+00
DAV:  80    -0.622182433294E+03   -0.67278E-01   -0.59238E-02 29916   0.542E-01    0.678E+00
DAV:  81    -0.622066740287E+03    0.11569E+00   -0.53701E-02 31524   0.588E-01    0.718E+00
DAV:  82    -0.621835005280E+03    0.23174E+00   -0.86807E-02 29592   0.800E-01    0.792E+00
DAV:  83    -0.624510244468E+03   -0.26752E+01   -0.17953E+00 29100   0.311E+00    0.125E+01
DAV:  84    -0.624463488083E+03    0.46756E-01   -0.54238E-01 30096   0.223E+00    0.108E+01
DAV:  85    -0.624445879211E+03    0.17609E-01   -0.35170E-01 30960   0.156E+00    0.812E+00
DAV:  86    -0.624481490979E+03   -0.35612E-01   -0.11973E-01 31836   0.105E+00    0.719E+00
DAV:  87    -0.624485285723E+03   -0.37947E-02   -0.47922E-02 30192   0.794E-01    0.622E+00
DAV:  88    -0.624493472861E+03   -0.81871E-02   -0.71606E-02 30984   0.107E+00    0.577E+00
DAV:  89    -0.624470140305E+03    0.23333E-01   -0.73359E-02 29796   0.676E-01    0.510E+00
DAV:  90    -0.624456775638E+03    0.13365E-01   -0.20298E-02 31308   0.405E-01    0.469E+00
DAV:  91    -0.624441056388E+03    0.15719E-01   -0.13440E-02 32508   0.468E-01    0.391E+00
DAV:  92    -0.624433341390E+03    0.77150E-02   -0.34696E-02 33012   0.660E-01    0.281E+00
DAV:  93    -0.624438645128E+03   -0.53037E-02   -0.39540E-02 30420   0.452E-01    0.294E+00
DAV:  94    -0.624436404599E+03    0.22405E-02   -0.14074E-02 32760   0.406E-01    0.258E+00
DAV:  95    -0.624434623477E+03    0.17811E-02   -0.14978E-02 31788   0.326E-01    0.208E+00
DAV:  96    -0.624431951005E+03    0.26725E-02   -0.12188E-02 33228   0.295E-01    0.176E+00
DAV:  97    -0.624428104359E+03    0.38466E-02   -0.17632E-02 30180   0.295E-01    0.147E+00
DAV:  98    -0.624428059837E+03    0.44522E-04   -0.45303E-02 34812   0.522E-01    0.148E+00
DAV:  99    -0.624428843387E+03   -0.78355E-03   -0.19839E-02 26724   0.258E-01    0.128E+00
DAV: 100    -0.624428852097E+03   -0.87107E-05   -0.11749E-03 26844   0.644E-02
   1 F= -.62442885E+03 E0= -.62438144E+03  d E =-.624429E+03  mag=    19.8941
       N       E                     dE             d eps       ncg     rms          rms(c)
DAV:   1    -0.625512520358E+03   -0.10837E+01   -0.45389E+02 21504   0.429E+01    0.127E+01
DAV:   2    -0.626958673923E+03   -0.14462E+01   -0.34365E+01 30576   0.164E+01    0.169E+01
DAV:   3    -0.626866168410E+03    0.92506E-01   -0.51286E+00 30972   0.674E+00    0.107E+01
DAV:   4    -0.626484427405E+03    0.38174E+00   -0.92319E-01 31536   0.382E+00    0.810E+00
DAV:   5    -0.626525382564E+03   -0.40955E-01   -0.13409E+00 33912   0.451E+00    0.406E+00
DAV:   6    -0.626623328883E+03   -0.97946E-01   -0.79455E-01 28164   0.180E+00    0.243E+00
DAV:   7    -0.626636315191E+03   -0.12986E-01   -0.16922E-01 30984   0.939E-01    0.153E+00
DAV:   8    -0.626642305228E+03   -0.59900E-02   -0.48123E-02 29736   0.707E-01    0.996E-01
DAV:   9    -0.626645877617E+03   -0.35724E-02   -0.18742E-02 31536   0.402E-01    0.771E-01
DAV:  10    -0.626648081715E+03   -0.22041E-02   -0.73263E-03 30396   0.252E-01    0.459E-01
DAV:  11    -0.626649963314E+03   -0.18816E-02   -0.46855E-03 30780   0.173E-01    0.262E-01
DAV:  12    -0.626650911339E+03   -0.94803E-03   -0.24511E-03 31524   0.132E-01    0.192E-01
DAV:  13    -0.626652261716E+03   -0.13504E-02   -0.17156E-03 31044   0.854E-02    0.149E-01
DAV:  14    -0.626652544865E+03   -0.28315E-03   -0.46229E-04 23448   0.665E-02    0.108E-01
DAV:  15    -0.626652745028E+03   -0.20016E-03   -0.53892E-04 22404   0.567E-02    0.905E-02
DAV:  16    -0.626652816305E+03   -0.71277E-04   -0.15237E-04 17232   0.525E-02
   2 F= -.62665282E+03 E0= -.62665282E+03  d E =-.222396E+01  mag=    19.9558
       N       E                     dE             d eps       ncg     rms          rms(c)
DAV:   1    -0.627882834941E+03   -0.12301E+01   -0.72427E+01 21708   0.177E+01    0.762E+00
DAV:   2    -0.627549470801E+03    0.33336E+00   -0.66604E+00 30852   0.665E+00    0.799E+00
DAV:   3    -0.627338733649E+03    0.21074E+00   -0.11917E+00 30348   0.288E+00    0.430E+00
DAV:   4    -0.627318750343E+03    0.19983E-01   -0.25794E-01 30312   0.112E+00    0.273E+00
DAV:   5    -0.627305728014E+03    0.13022E-01   -0.66021E-02 32028   0.797E-01    0.997E-01
DAV:   6    -0.627305229547E+03    0.49847E-03   -0.32584E-02 31716   0.470E-01    0.554E-01
DAV:   7    -0.627304696641E+03    0.53291E-03   -0.54094E-03 31056   0.192E-01    0.260E-01
DAV:   8    -0.627304663450E+03    0.33191E-04   -0.20133E-03 31260   0.113E-01    0.180E-01
DAV:   9    -0.627304649668E+03    0.13781E-04   -0.58093E-04 24948   0.662E-02
   3 F= -.62730465E+03 E0= -.62730465E+03  d E =-.651833E+00  mag=    19.9700
       N       E                     dE             d eps       ncg     rms          rms(c)
DAV:   1    -0.627304097631E+03    0.56582E-03   -0.12593E+02 21504   0.222E+01    0.462E+00
DAV:   2    -0.627624883576E+03   -0.32079E+00   -0.53715E+00 29976   0.728E+00    0.617E+00
DAV:   3    -0.627616008776E+03    0.88748E-02   -0.86808E-01 28200   0.215E+00    0.390E+00
DAV:   4    -0.627570776045E+03    0.45233E-01   -0.14676E-01 30456   0.882E-01    0.303E+00
DAV:   5    -0.627542737745E+03    0.28038E-01   -0.10499E-01 30180   0.116E+00    0.142E+00
DAV:   6    -0.627542335958E+03    0.40179E-03   -0.14017E-01 30732   0.957E-01    0.740E-01
DAV:   7    -0.627540781366E+03    0.15546E-02   -0.61834E-02 26136   0.522E-01    0.486E-01
DAV:   8    -0.627540963962E+03   -0.18260E-03   -0.77067E-03 30792   0.228E-01    0.267E-01
DAV:   9    -0.627540469020E+03    0.49494E-03   -0.27031E-03 31608   0.170E-01    0.158E-01
DAV:  10    -0.627540419354E+03    0.49666E-04   -0.18399E-03 29256   0.119E-01    0.136E-01
DAV:  11    -0.627540357620E+03    0.61734E-04   -0.69625E-04 24684   0.600E-02
   4 F= -.62754036E+03 E0= -.62754036E+03  d E =-.235708E+00  mag=    19.9801
       N       E                     dE             d eps       ncg     rms          rms(c)
DAV:   1    -0.627729873839E+03   -0.18945E+00   -0.92581E+00 21552   0.590E+00    0.166E+00
DAV:   2    -0.627750271896E+03   -0.20398E-01   -0.54662E-01 28476   0.200E+00    0.230E+00
DAV:   3    -0.627750449150E+03   -0.17725E-03   -0.88431E-02 27012   0.592E-01    0.197E+00
DAV:   4    -0.627741749710E+03    0.86994E-02   -0.42495E-02 31296   0.455E-01    0.168E+00
DAV:   5    -0.627743687703E+03   -0.19380E-02   -0.73031E-02 27456   0.570E-01    0.112E+00
DAV:   6    -0.627741780237E+03    0.19075E-02   -0.23218E-02 31200   0.425E-01    0.979E-01
DAV:   7    -0.627736262205E+03    0.55180E-02   -0.24171E-02 27924   0.324E-01    0.570E-01
DAV:   8    -0.627736107827E+03    0.15438E-03   -0.46303E-03 30996   0.163E-01    0.386E-01
DAV:   9    -0.627735247954E+03    0.85987E-03   -0.12656E-03 29772   0.831E-02    0.278E-01
DAV:  10    -0.627734934789E+03    0.31317E-03   -0.82230E-04 25464   0.571E-02    0.168E-01
DAV:  11    -0.627734821936E+03    0.11285E-03   -0.17913E-04 13512   0.296E-02    0.119E-01
DAV:  12    -0.627734769231E+03    0.52705E-04   -0.13927E-04 12768   0.291E-02
   5 F= -.62773477E+03 E0= -.62773477E+03  d E =-.194412E+00  mag=    19.9871
       N       E                     dE             d eps       ncg     rms          rms(c)
DAV:   1    -0.627738346225E+03   -0.35243E-02   -0.38417E+01 21504   0.124E+01    0.202E+00
DAV:   2    -0.627810081435E+03   -0.71735E-01   -0.11764E+00 27072   0.248E+00    0.157E+00
DAV:   3    -0.627809626020E+03    0.45541E-03   -0.10490E-01 31524   0.771E-01    0.946E-01
DAV:   4    -0.627803835964E+03    0.57901E-02   -0.19551E-02 31944   0.347E-01    0.578E-01
DAV:   5    -0.627801520667E+03    0.23153E-02   -0.96428E-03 28260   0.282E-01    0.253E-01
DAV:   6    -0.627801547512E+03   -0.26845E-04   -0.58999E-03 30768   0.189E-01    0.165E-01
DAV:   7    -0.627801585666E+03   -0.38154E-04   -0.15914E-03 29268   0.855E-02    0.908E-02
DAV:   8    -0.627801566490E+03    0.19176E-04   -0.14312E-04 14040   0.361E-02
   6 F= -.62780157E+03 E0= -.62780157E+03  d E =-.667973E-01  mag=    19.9906
       N       E                     dE             d eps       ncg     rms          rms(c)
DAV:   1    -0.627905807141E+03   -0.10422E+00   -0.18841E+01 21504   0.860E+00    0.201E+00
DAV:   2    -0.627942478067E+03   -0.36671E-01   -0.88639E-01 28620   0.217E+00    0.229E+00
DAV:   3    -0.627933435930E+03    0.90421E-02   -0.72279E-02 28380   0.654E-01    0.150E+00
DAV:   4    -0.627927652514E+03    0.57834E-02   -0.64180E-02 31848   0.572E-01    0.115E+00
DAV:   5    -0.627926174727E+03    0.14778E-02   -0.14074E-02 29616   0.325E-01    0.540E-01
DAV:   6    -0.627925162669E+03    0.10121E-02   -0.10726E-02 31584   0.225E-01    0.283E-01
DAV:   7    -0.627925148934E+03    0.13734E-04   -0.30696E-03 29532   0.121E-01    0.152E-01
DAV:   8    -0.627925105671E+03    0.43263E-04   -0.54133E-04 24348   0.714E-02
   7 F= -.62792511E+03 E0= -.62792511E+03  d E =-.123539E+00  mag=    19.9932
       N       E                     dE             d eps       ncg     rms          rms(c)
DAV:   1    -0.627742364904E+03    0.18278E+00   -0.12031E+02 21504   0.218E+01    0.279E+00
DAV:   2    -0.628045938430E+03   -0.30357E+00   -0.34367E+00 26220   0.394E+00    0.201E+00
DAV:   3    -0.628043898342E+03    0.20401E-02   -0.19025E-01 30276   0.102E+00    0.120E+00
DAV:   4    -0.628034132400E+03    0.97659E-02   -0.33113E-02 31092   0.442E-01    0.727E-01
DAV:   5    -0.628029489304E+03    0.46431E-02   -0.20985E-02 30276   0.357E-01    0.332E-01
DAV:   6    -0.628029312288E+03    0.17702E-03   -0.82320E-03 30216   0.239E-01    0.182E-01
DAV:   7    -0.628029338645E+03   -0.26357E-04   -0.39369E-03 31584   0.135E-01    0.119E-01
DAV:   8    -0.628029320787E+03    0.17858E-04   -0.48621E-04 23520   0.592E-02
   8 F= -.62802932E+03 E0= -.62802932E+03  d E =-.104215E+00  mag=    19.9949
       N       E                     dE             d eps       ncg     rms          rms(c)
DAV:   1    -0.628025391026E+03    0.39476E-02   -0.35426E+00 21528   0.374E+00    0.732E-01
DAV:   2    -0.628032881368E+03   -0.74903E-02   -0.14066E-01 29616   0.933E-01    0.782E-01
DAV:   3    -0.628031563424E+03    0.13179E-02   -0.16863E-02 30408   0.306E-01    0.469E-01
DAV:   4    -0.628030716388E+03    0.84704E-03   -0.44854E-03 31116   0.149E-01    0.344E-01
DAV:   5    -0.628030355213E+03    0.36117E-03   -0.16231E-03 26904   0.106E-01    0.161E-01
DAV:   6    -0.628030283347E+03    0.71866E-04   -0.89659E-04 29076   0.795E-02
   9 F= -.62803028E+03 E0= -.62803028E+03  d E =-.962560E-03  mag=    19.9960
       N       E                     dE             d eps       ncg     rms          rms(c)
DAV:   1    -0.628035933407E+03   -0.55782E-02   -0.33248E+00 21504   0.362E+00    0.429E-01
DAV:   2    -0.628044351523E+03   -0.84181E-02   -0.93662E-02 26568   0.662E-01    0.367E-01
DAV:   3    -0.628044414499E+03   -0.62977E-04   -0.57768E-03 30168   0.171E-01    0.207E-01
DAV:   4    -0.628044131679E+03    0.28282E-03   -0.99138E-04 28008   0.907E-02    0.161E-01
DAV:   5    -0.628044038627E+03    0.93051E-04   -0.89799E-04 25560   0.729E-02
  10 F= -.62804404E+03 E0= -.62804404E+03  d E =-.137553E-01  mag=    19.9967
       N       E                     dE             d eps       ncg     rms          rms(c)
DAV:   1    -0.628048803354E+03   -0.46717E-02   -0.15463E+00 21528   0.246E+00    0.402E-01
DAV:   2    -0.628052334151E+03   -0.35308E-02   -0.48013E-02 27288   0.490E-01    0.329E-01
DAV:   3    -0.628052336649E+03   -0.24980E-05   -0.42046E-03 30228   0.165E-01    0.187E-01
DAV:   4    -0.628052165518E+03    0.17113E-03   -0.83006E-04 26208   0.760E-02    0.122E-01
DAV:   5    -0.628052105771E+03    0.59747E-04   -0.40544E-04 21108   0.607E-02
  11 F= -.62805211E+03 E0= -.62805211E+03  d E =-.806714E-02  mag=    19.9973
       N       E                     dE             d eps       ncg     rms          rms(c)
DAV:   1    -0.628046672494E+03    0.54930E-02   -0.92411E+00 21504   0.601E+00    0.736E-01
DAV:   2    -0.628071375934E+03   -0.24703E-01   -0.25155E-01 25248   0.103E+00    0.457E-01
DAV:   3    -0.628071799131E+03   -0.42320E-03   -0.11547E-02 29832   0.226E-01    0.258E-01
DAV:   4    -0.628071103546E+03    0.69559E-03   -0.26157E-03 30960   0.142E-01    0.167E-01
DAV:   5    -0.628070996699E+03    0.10685E-03   -0.17136E-03 30372   0.986E-02    0.892E-02
DAV:   6    -0.628070962006E+03    0.34693E-04   -0.31475E-04 17880   0.553E-02
  12 F= -.62807096E+03 E0= -.62807096E+03  d E =-.188562E-01  mag=    19.9978
       N       E                     dE             d eps       ncg     rms          rms(c)
DAV:   1    -0.628030418769E+03    0.40578E-01   -0.22336E+01 21504   0.936E+00    0.105E+00
DAV:   2    -0.628093028142E+03   -0.62609E-01   -0.62362E-01 25128   0.164E+00    0.748E-01
DAV:   3    -0.628093476542E+03   -0.44840E-03   -0.24695E-02 29748   0.358E-01    0.408E-01
DAV:   4    -0.628092042331E+03    0.14342E-02   -0.41115E-03 31404   0.190E-01    0.293E-01
DAV:   5    -0.628091435497E+03    0.60683E-03   -0.42613E-03 30312   0.188E-01    0.110E-01
DAV:   6    -0.628091512437E+03   -0.76939E-04   -0.17568E-03 27012   0.100E-01    0.814E-02
DAV:   7    -0.628091489196E+03    0.23240E-04   -0.59615E-04 22752   0.544E-02
  13 F= -.62809149E+03 E0= -.62809149E+03  d E =-.205272E-01  mag=    19.9983
       N       E                     dE             d eps       ncg     rms          rms(c)
DAV:   1    -0.628083578224E+03    0.79342E-02   -0.15808E+00 21504   0.249E+00    0.287E-01
DAV:   2    -0.628087983788E+03   -0.44056E-02   -0.43567E-02 25836   0.439E-01    0.214E-01
DAV:   3    -0.628088033593E+03   -0.49805E-04   -0.19119E-03 29772   0.966E-02    0.125E-01
DAV:   4    -0.628087900037E+03    0.13356E-03   -0.25656E-04 18144   0.500E-02    0.970E-02
DAV:   5    -0.628087839582E+03    0.60455E-04   -0.57012E-04 23100   0.656E-02
  14 F= -.62808784E+03 E0= -.62808784E+03  d E =0.364961E-02  mag=    19.9986
       N       E                     dE             d eps       ncg     rms          rms(c)
DAV:   1    -0.628088995927E+03   -0.10959E-02   -0.14979E+00 21504   0.243E+00    0.275E-01
DAV:   2    -0.628092656461E+03   -0.36605E-02   -0.40777E-02 24036   0.420E-01    0.166E-01
DAV:   3    -0.628092648935E+03    0.75260E-05   -0.16243E-03 29796   0.936E-02    0.962E-02
DAV:   4    -0.628092547801E+03    0.10113E-03   -0.25201E-04 17124   0.491E-02    0.644E-02
DAV:   5    -0.628092507039E+03    0.40762E-04   -0.26597E-04 16296   0.556E-02
  15 F= -.62809251E+03 E0= -.62809251E+03  d E =-.466746E-02  mag=    19.9988
       N       E                     dE             d eps       ncg     rms          rms(c)
DAV:   1    -0.628093599147E+03   -0.10513E-02   -0.58331E-01 21504   0.150E+00    0.257E-01
DAV:   2    -0.628095355267E+03   -0.17561E-02   -0.16286E-02 26508   0.283E-01    0.183E-01
DAV:   3    -0.628095444570E+03   -0.89303E-04   -0.12601E-03 28920   0.781E-02    0.891E-02
DAV:   4    -0.628095379414E+03    0.65156E-04   -0.24599E-04 18276   0.454E-02
  16 F= -.62809538E+03 E0= -.62809538E+03  d E =-.287238E-02  mag=    19.9990
       N       E                     dE             d eps       ncg     rms          rms(c)
DAV:   1    -0.628090057945E+03    0.53866E-02   -0.42785E+00 21504   0.409E+00    0.559E-01
DAV:   2    -0.628102547050E+03   -0.12489E-01   -0.11377E-01 24600   0.709E-01    0.322E-01
DAV:   3    -0.628103078896E+03   -0.53185E-03   -0.53387E-03 29808   0.150E-01    0.164E-01
DAV:   4    -0.628102784699E+03    0.29420E-03   -0.83752E-04 26892   0.850E-02    0.109E-01
DAV:   5    -0.628102694961E+03    0.89738E-04   -0.89168E-04 25968   0.809E-02
  17 F= -.62810269E+03 E0= -.62810269E+03  d E =-.731555E-02  mag=    19.9992
       N       E                     dE             d eps       ncg     rms          rms(c)
DAV:   1    -0.628104082069E+03   -0.12974E-02   -0.67121E-01 21504   0.163E+00    0.301E-01
DAV:   2    -0.628105276382E+03   -0.11943E-02   -0.20721E-02 28872   0.340E-01    0.215E-01
DAV:   3    -0.628105316345E+03   -0.39963E-04   -0.23492E-03 29676   0.126E-01    0.109E-01
DAV:   4    -0.628105241342E+03    0.75004E-04   -0.33391E-04 18936   0.539E-02
  18 F= -.62810524E+03 E0= -.62810524E+03  d E =-.254638E-02  mag=    19.9993
       N       E                     dE             d eps       ncg     rms          rms(c)
DAV:   1    -0.628105251708E+03    0.64637E-04   -0.88262E-03 22272   0.188E-01    0.727E-02
DAV:   2    -0.628105239530E+03    0.12179E-04   -0.67581E-04 25968   0.867E-02
  19 F= -.62810524E+03 E0= -.62810524E+03  d E =0.181189E-05  mag=    19.9993
       N       E                     dE             d eps       ncg     rms          rms(c)
DAV:   1    -0.628104810438E+03    0.44127E-03   -0.13688E-02 22152   0.233E-01    0.523E-02
DAV:   2    -0.628104836239E+03   -0.25802E-04   -0.40295E-04 19056   0.484E-02
  20 F= -.62810484E+03 E0= -.62810484E+03  d E =0.403290E-03  mag=    19.9994
       N       E                     dE             d eps       ncg     rms          rms(c)
DAV:   1    -0.628105706145E+03   -0.89571E-03   -0.76635E-01 21504   0.174E+00    0.263E-01
DAV:   2    -0.628107405168E+03   -0.16990E-02   -0.22273E-02 26340   0.331E-01    0.199E-01
DAV:   3    -0.628107397868E+03    0.73010E-05   -0.13297E-03 28584   0.924E-02    0.101E-01
DAV:   4    -0.628107334772E+03    0.63095E-04   -0.15732E-04 14244   0.422E-02
  21 F= -.62810733E+03 E0= -.62810733E+03  d E =-.249853E-02  mag=    19.9995
       N       E                     dE             d eps       ncg     rms          rms(c)
DAV:   1    -0.628108209079E+03   -0.81121E-03   -0.18948E-01 21552   0.860E-01    0.106E-01
DAV:   2    -0.628108630213E+03   -0.42113E-03   -0.53022E-03 26460   0.160E-01    0.877E-02
DAV:   3    -0.628108616991E+03    0.13222E-04   -0.18547E-04 13812   0.421E-02
  22 F= -.62810862E+03 E0= -.62810862E+03  d E =-.128222E-02  mag=    19.9995
       N       E                     dE             d eps       ncg     rms          rms(c)
DAV:   1    -0.628109111238E+03   -0.48103E-03   -0.43777E-02 21768   0.410E-01    0.224E-01
DAV:   2    -0.628108786917E+03    0.32432E-03   -0.32537E-03 31236   0.149E-01    0.151E-01
DAV:   3    -0.628108750906E+03    0.36011E-04   -0.65058E-04 24012   0.707E-02
  23 F= -.62810875E+03 E0= -.62810875E+03  d E =-.133916E-03  mag=    19.9995
       N       E                     dE             d eps       ncg     rms          rms(c)
DAV:   1    -0.628109281503E+03   -0.49459E-03   -0.64194E-02 21900   0.506E-01    0.168E-01
DAV:   2    -0.628109172615E+03    0.10889E-03   -0.37014E-03 30876   0.155E-01    0.158E-01
DAV:   3    -0.628109123377E+03    0.49238E-04   -0.37123E-04 21180   0.587E-02
  24 F= -.62810912E+03 E0= -.62810912E+03  d E =-.372471E-03  mag=    19.9996
       N       E                     dE             d eps       ncg     rms          rms(c)
DAV:   1    -0.628109624886E+03   -0.45227E-03   -0.42993E-01 21504   0.129E+00    0.181E-01
DAV:   2    -0.628110899971E+03   -0.12751E-02   -0.11712E-02 24588   0.228E-01    0.108E-01
DAV:   3    -0.628110932393E+03   -0.32422E-04   -0.44645E-04 21396   0.501E-02
  25 F= -.62811093E+03 E0= -.62811093E+03  d E =-.180902E-02  mag=    19.9996
       N       E                     dE             d eps       ncg     rms          rms(c)
DAV:   1    -0.628110683765E+03    0.21621E-03   -0.11759E-02 21624   0.217E-01    0.584E-02
DAV:   2    -0.628110698897E+03   -0.15132E-04   -0.48646E-04 22644   0.572E-02
  26 F= -.62811070E+03 E0= -.62811070E+03  d E =0.233496E-03  mag=    19.9996
       N       E                     dE             d eps       ncg     rms          rms(c)
DAV:   1    -0.628110469982E+03    0.21378E-03   -0.91993E-03 21984   0.189E-01    0.364E-02
DAV:   2    -0.628110495400E+03   -0.25418E-04   -0.32922E-04 16500   0.441E-02
  27 F= -.62811050E+03 E0= -.62811050E+03  d E =0.203497E-03  mag=    19.9997
       N       E                     dE             d eps       ncg     rms          rms(c)
DAV:   1    -0.628111398085E+03   -0.92810E-03   -0.35017E-01 21504   0.118E+00    0.179E-01
DAV:   2    -0.628112093740E+03   -0.69565E-03   -0.10275E-02 25200   0.214E-01    0.964E-02
DAV:   3    -0.628112074341E+03    0.19398E-04   -0.44029E-04 21648   0.616E-02
  28 F= -.62811207E+03 E0= -.62811207E+03  d E =-.157894E-02  mag=    19.9997
       N       E                     dE             d eps       ncg     rms          rms(c)
DAV:   1    -0.628112855451E+03   -0.76171E-03   -0.27462E-01 21504   0.103E+00    0.154E-01
DAV:   2    -0.628113509682E+03   -0.65423E-03   -0.71630E-03 25452   0.180E-01    0.101E-01
DAV:   3    -0.628113492580E+03    0.17103E-04   -0.27683E-04 17532   0.477E-02
  29 F= -.62811349E+03 E0= -.62811349E+03  d E =-.141824E-02  mag=    19.9997
       N       E                     dE             d eps       ncg     rms          rms(c)
DAV:   1    -0.628113840302E+03   -0.33062E-03   -0.56138E-01 21504   0.148E+00    0.220E-01
DAV:   2    -0.628115389201E+03   -0.15489E-02   -0.14417E-02 24372   0.251E-01    0.127E-01
DAV:   3    -0.628115422336E+03   -0.33135E-04   -0.54217E-04 22512   0.536E-02
  30 F= -.62811542E+03 E0= -.62811542E+03  d E =-.192976E-02  mag=    19.9997
       N       E                     dE             d eps       ncg     rms          rms(c)
DAV:   1    -0.628115920679E+03   -0.53148E-03   -0.16042E-01 21504   0.791E-01    0.123E-01
DAV:   2    -0.628116339128E+03   -0.41845E-03   -0.43775E-03 26256   0.152E-01    0.105E-01
DAV:   3    -0.628116317738E+03    0.21390E-04   -0.19198E-04 15612   0.422E-02
  31 F= -.62811632E+03 E0= -.62811632E+03  d E =-.895402E-03  mag=    19.9998
       N       E                     dE             d eps       ncg     rms          rms(c)
DAV:   1    -0.628116816241E+03   -0.47711E-03   -0.70635E-02 21552   0.523E-01    0.882E-02
DAV:   2    -0.628116983264E+03   -0.16702E-03   -0.18471E-03 25836   0.904E-02    0.534E-02
DAV:   3    -0.628116974299E+03    0.89645E-05   -0.79513E-05 12720   0.265E-02
  32 F= -.62811697E+03 E0= -.62811697E+03  d E =-.656561E-03  mag=    19.9998
       N       E                     dE             d eps       ncg     rms          rms(c)
DAV:   1    -0.628117469836E+03   -0.48657E-03   -0.19903E-01 21504   0.882E-01    0.113E-01
DAV:   2    -0.628118004603E+03   -0.53477E-03   -0.53090E-03 25836   0.155E-01    0.850E-02
DAV:   3    -0.628118004220E+03    0.38312E-06   -0.18559E-04 14568   0.372E-02
  33 F= -.62811800E+03 E0= -.62811800E+03  d E =-.102992E-02  mag=    19.9998
       N       E                     dE             d eps       ncg     rms          rms(c)
DAV:   1    -0.628117490697E+03    0.51391E-03   -0.37517E-02 21528   0.385E-01    0.574E-02
DAV:   2    -0.628117600788E+03   -0.11009E-03   -0.13461E-03 26064   0.856E-02    0.594E-02
DAV:   3    -0.628117594779E+03    0.60095E-05   -0.63756E-05 12144   0.254E-02
  34 F= -.62811759E+03 E0= -.62811759E+03  d E =0.409442E-03  mag=    19.9998
       N       E                     dE             d eps       ncg     rms          rms(c)
DAV:   1    -0.628117924276E+03   -0.32349E-03   -0.31130E-01 21504   0.110E+00    0.147E-01
DAV:   2    -0.628118805164E+03   -0.88089E-03   -0.88110E-03 26244   0.209E-01    0.117E-01
DAV:   3    -0.628118825034E+03   -0.19870E-04   -0.37242E-04 19548   0.551E-02
  35 F= -.62811883E+03 E0= -.62811883E+03  d E =-.123026E-02  mag=    19.9998
       N       E                     dE             d eps       ncg     rms          rms(c)
DAV:   1    -0.628118981837E+03   -0.17667E-03   -0.47403E-03 21600   0.136E-01    0.460E-02
DAV:   2    -0.628118972902E+03    0.89345E-05   -0.16777E-04 12276   0.328E-02
  36 F= -.62811897E+03 E0= -.62811897E+03  d E =-.147868E-03  mag=    19.9998
       N       E                     dE             d eps       ncg     rms          rms(c)
DAV:   1    -0.628118883412E+03    0.98425E-04   -0.49003E-01 21504   0.138E+00    0.219E-01
DAV:   2    -0.628120413363E+03   -0.15300E-02   -0.12672E-02 24672   0.238E-01    0.128E-01
DAV:   3    -0.628120502276E+03   -0.88914E-04   -0.60749E-04 23580   0.560E-02
  37 F= -.62812050E+03 E0= -.62812050E+03  d E =-.152937E-02  mag=    19.9999
       N       E                     dE             d eps       ncg     rms          rms(c)
DAV:   1    -0.628120960560E+03   -0.54720E-03   -0.17077E-01 21504   0.815E-01    0.113E-01
DAV:   2    -0.628121378470E+03   -0.41791E-03   -0.43301E-03 26196   0.144E-01    0.831E-02
DAV:   3    -0.628121363782E+03    0.14688E-04   -0.15150E-04 14508   0.364E-02
  38 F= -.62812136E+03 E0= -.62812136E+03  d E =-.861506E-03  mag=    19.9999
       N       E                     dE             d eps       ncg     rms          rms(c)
DAV:   1    -0.628121579586E+03   -0.20112E-03   -0.20874E-02 21576   0.289E-01    0.990E-02
DAV:   2    -0.628121557984E+03    0.21602E-04   -0.13496E-03 29388   0.956E-02    0.109E-01
DAV:   3    -0.628121517999E+03    0.39986E-04   -0.11416E-04 14508   0.338E-02
  39 F= -.62812152E+03 E0= -.62812152E+03  d E =-.154216E-03  mag=    19.9999
       N       E                     dE             d eps       ncg     rms          rms(c)
DAV:   1    -0.628121736358E+03   -0.17837E-03   -0.22386E-02 21600   0.292E-01    0.643E-02
DAV:   2    -0.628121812428E+03   -0.76070E-04   -0.11754E-03 28680   0.853E-02    0.848E-02
DAV:   3    -0.628121784999E+03    0.27429E-04   -0.90961E-05 13296   0.292E-02
  40 F= -.62812178E+03 E0= -.62812178E+03  d E =-.267001E-03  mag=    19.9999
       N       E                     dE             d eps       ncg     rms          rms(c)
DAV:   1    -0.628122210198E+03   -0.39777E-03   -0.18820E-01 21504   0.860E-01    0.136E-01
DAV:   2    -0.628122646025E+03   -0.43583E-03   -0.54525E-03 26532   0.159E-01    0.905E-02
DAV:   3    -0.628122636597E+03    0.94287E-05   -0.28790E-04 18180   0.491E-02
  41 F= -.62812264E+03 E0= -.62812264E+03  d E =-.851598E-03  mag=    19.9999
       N       E                     dE             d eps       ncg     rms          rms(c)
DAV:   1    -0.628122994510E+03   -0.34849E-03   -0.88432E-02 21504   0.585E-01    0.818E-02
DAV:   2    -0.628123223303E+03   -0.22879E-03   -0.26214E-03 28104   0.115E-01    0.847E-02
DAV:   3    -0.628123205389E+03    0.17914E-04   -0.13395E-04 14076   0.314E-02
  42 F= -.62812321E+03 E0= -.62812321E+03  d E =-.568792E-03  mag=    19.9999
       N       E                     dE             d eps       ncg     rms          rms(c)
DAV:   1    -0.628123533934E+03   -0.31063E-03   -0.61523E-02 21504   0.492E-01    0.795E-02
DAV:   2    -0.628123691978E+03   -0.15804E-03   -0.19140E-03 27828   0.997E-02    0.718E-02
DAV:   3    -0.628123674081E+03    0.17897E-04   -0.91724E-05 12684   0.302E-02
  43 F= -.62812367E+03 E0= -.62812367E+03  d E =-.468693E-03  mag=    19.9999
       N       E                     dE             d eps       ncg     rms          rms(c)
DAV:   1    -0.628123970984E+03   -0.27901E-03   -0.15183E-01 21504   0.770E-01    0.114E-01
DAV:   2    -0.628124366094E+03   -0.39511E-03   -0.43903E-03 26484   0.147E-01    0.967E-02
DAV:   3    -0.628124359352E+03    0.67417E-05   -0.24089E-04 17136   0.418E-02
  44 F= -.62812436E+03 E0= -.62812436E+03  d E =-.685271E-03  mag=    19.9999
       N       E                     dE             d eps       ncg     rms          rms(c)
DAV:   1    -0.628124586676E+03   -0.22058E-03   -0.22426E-02 21600   0.295E-01    0.509E-02
DAV:   2    -0.628124655385E+03   -0.68709E-04   -0.88675E-04 26628   0.689E-02
  45 F= -.62812466E+03 E0= -.62812466E+03  d E =-.296033E-03  mag=    19.9999
       N       E                     dE             d eps       ncg     rms          rms(c)
DAV:   1    -0.628119932665E+03    0.46540E-02   -0.22307E+00 21504   0.294E+00    0.461E-01
DAV:   2    -0.628126934683E+03   -0.70020E-02   -0.57672E-02 24324   0.505E-01    0.247E-01
DAV:   3    -0.628127355935E+03   -0.42125E-03   -0.26917E-03 30036   0.104E-01    0.117E-01
DAV:   4    -0.628127211449E+03    0.14449E-03   -0.32711E-04 19224   0.499E-02    0.780E-02
DAV:   5    -0.628127156937E+03    0.54513E-04   -0.41192E-04 18864   0.539E-02
  46 F= -.62812716E+03 E0= -.62812716E+03  d E =-.250155E-02  mag=    19.9999
       N       E                     dE             d eps       ncg     rms          rms(c)
DAV:   1    -0.628121000347E+03    0.62111E-02   -0.29828E+00 21504   0.340E+00    0.506E-01
DAV:   2    -0.628129607445E+03   -0.86071E-02   -0.78024E-02 23952   0.580E-01    0.252E-01
DAV:   3    -0.628130050626E+03   -0.44318E-03   -0.33923E-03 29688   0.122E-01    0.120E-01
DAV:   4    -0.628129878198E+03    0.17243E-03   -0.49943E-04 21612   0.600E-02    0.707E-02
DAV:   5    -0.628129803069E+03    0.75129E-04   -0.25844E-04 16956   0.603E-02
  47 F= -.62812980E+03 E0= -.62812980E+03  d E =-.264613E-02  mag=    20.0000
       N       E                     dE             d eps       ncg     rms          rms(c)
DAV:   1    -0.628115087170E+03    0.14791E-01   -0.35896E+00 21504   0.373E+00    0.575E-01
DAV:   2    -0.628126528691E+03   -0.11442E-01   -0.92904E-02 24180   0.635E-01    0.298E-01
DAV:   3    -0.628127254161E+03   -0.72547E-03   -0.38848E-03 29820   0.121E-01    0.131E-01
DAV:   4    -0.628127052485E+03    0.20168E-03   -0.42487E-04 20340   0.553E-02    0.870E-02
DAV:   5    -0.628126944800E+03    0.10768E-03   -0.38986E-04 19872   0.608E-02    0.492E-02
DAV:   6    -0.628126954322E+03   -0.95220E-05   -0.16823E-04 12720   0.336E-02
  48 F= -.62812695E+03 E0= -.62812695E+03  d E =0.284875E-02  mag=    20.0000
       N       E                     dE             d eps       ncg     rms          rms(c)
DAV:   1    -0.628122312359E+03    0.46324E-02   -0.25183E+00 21504   0.314E+00    0.376E-01
DAV:   2    -0.628129460671E+03   -0.71483E-02   -0.65816E-02 23748   0.534E-01    0.214E-01
DAV:   3    -0.628129637877E+03   -0.17721E-03   -0.22842E-03 29700   0.965E-02    0.108E-01
DAV:   4    -0.628129481783E+03    0.15609E-03   -0.28430E-04 17940   0.515E-02    0.741E-02
DAV:   5    -0.628129424368E+03    0.57415E-04   -0.43379E-04 20712   0.608E-02
  49 F= -.62812942E+03 E0= -.62812942E+03  d E =-.247005E-02  mag=    20.0000
       N       E                     dE             d eps       ncg     rms          rms(c)
DAV:   1    -0.628129214299E+03    0.26748E-03   -0.34176E-02 21744   0.371E-01    0.540E-02
DAV:   2    -0.628129248457E+03   -0.34158E-04   -0.96681E-04 24732   0.101E-01
  50 F= -.62812925E+03 E0= -.62812925E+03  d E =0.175911E-03  mag=    20.0000
       N       E                     dE             d eps       ncg     rms          rms(c)
DAV:   1    -0.628129412466E+03   -0.19817E-03   -0.12553E-01 21504   0.701E-01    0.943E-02
DAV:   2    -0.628129766607E+03   -0.35414E-03   -0.34995E-03 25668   0.123E-01    0.455E-02
DAV:   3    -0.628129778921E+03   -0.12315E-04   -0.12579E-04 13668   0.278E-02
  51 F= -.62812978E+03 E0= -.62812978E+03  d E =-.530464E-03  mag=    20.0000
       N       E                     dE             d eps       ncg     rms          rms(c)
DAV:   1    -0.628129998515E+03   -0.23191E-03   -0.18145E-01 21504   0.848E-01    0.109E-01
DAV:   2    -0.628130331238E+03   -0.33272E-03   -0.49468E-03 26544   0.161E-01    0.713E-02
DAV:   3    -0.628130317155E+03    0.14083E-04   -0.40379E-04 21216   0.513E-02
  52 F= -.62813032E+03 E0= -.62813032E+03  d E =-.538234E-03  mag=    20.0000
       N       E                     dE             d eps       ncg     rms          rms(c)
DAV:   1    -0.628130505492E+03   -0.17425E-03   -0.31292E-02 21744   0.346E-01    0.644E-02
DAV:   2    -0.628130577507E+03   -0.72016E-04   -0.98667E-04 25488   0.759E-02
  53 F= -.62813058E+03 E0= -.62813058E+03  d E =-.260352E-03  mag=    20.0000
       N       E                     dE             d eps       ncg     rms          rms(c)
DAV:   1    -0.628130645241E+03   -0.13975E-03   -0.27141E-03 22584   0.106E-01    0.443E-02
DAV:   2    -0.628130633248E+03    0.11993E-04   -0.14467E-04 13188   0.326E-02
  54 F= -.62813063E+03 E0= -.62813063E+03  d E =-.557407E-04  mag=    20.0000
       N       E                     dE             d eps       ncg     rms          rms(c)
DAV:   1    -0.628130195768E+03    0.44947E-03   -0.55990E-02 21504   0.469E-01    0.543E-02
DAV:   2    -0.628130324593E+03   -0.12882E-03   -0.16083E-03 25968   0.883E-02    0.397E-02
DAV:   3    -0.628130321081E+03    0.35120E-05   -0.54845E-05 11880   0.219E-02
  55 F= -.62813032E+03 E0= -.62813032E+03  d E =0.312167E-03  mag=    20.0000
       N       E                     dE             d eps       ncg     rms          rms(c)
DAV:   1    -0.628130450408E+03   -0.12582E-03   -0.14285E-01 21504   0.750E-01    0.827E-02
DAV:   2    -0.628130827604E+03   -0.37720E-03   -0.41393E-03 26208   0.140E-01    0.705E-02
DAV:   3    -0.628130818753E+03    0.88516E-05   -0.14906E-04 13380   0.357E-02
  56 F= -.62813082E+03 E0= -.62813082E+03  d E =-.497672E-03  mag=    20.0000
       N       E                     dE             d eps       ncg     rms          rms(c)
DAV:   1    -0.628130989115E+03   -0.16151E-03   -0.92382E-02 21504   0.598E-01    0.771E-02
DAV:   2    -0.628131217109E+03   -0.22799E-03   -0.23671E-03 26532   0.103E-01    0.520E-02
DAV:   3    -0.628131214707E+03    0.24017E-05   -0.84390E-05 12372   0.248E-02
  57 F= -.62813121E+03 E0= -.62813121E+03  d E =-.395955E-03  mag=    20.0000
       N       E                     dE             d eps       ncg     rms          rms(c)
DAV:   1    -0.628131450460E+03   -0.23335E-03   -0.14247E-01 21504   0.749E-01    0.107E-01
DAV:   2    -0.628131718843E+03   -0.26838E-03   -0.40351E-03 26112   0.134E-01    0.620E-02
DAV:   3    -0.628131699484E+03    0.19358E-04   -0.15750E-04 15168   0.389E-02
  58 F= -.62813170E+03 E0= -.62813170E+03  d E =-.484777E-03  mag=    20.0000
       N       E                     dE             d eps       ncg     rms          rms(c)
DAV:   1    -0.628131458535E+03    0.26031E-03   -0.19635E-02 21576   0.278E-01    0.358E-02
DAV:   2    -0.628131514280E+03   -0.55745E-04   -0.60511E-04 20940   0.525E-02
  59 F= -.62813151E+03 E0= -.62813151E+03  d E =0.185204E-03  mag=    20.0000
       N       E                     dE             d eps       ncg     rms          rms(c)
DAV:   1    -0.628131620311E+03   -0.16178E-03   -0.56004E-03 22272   0.156E-01    0.641E-02
DAV:   2    -0.628131567390E+03    0.52921E-04   -0.31755E-04 15792   0.482E-02
  60 F= -.62813157E+03 E0= -.62813157E+03  d E =-.531102E-04  mag=    20.0000
       N       E                     dE             d eps       ncg     rms          rms(c)
DAV:   1    -0.628131702854E+03   -0.82543E-04   -0.71855E-02 21504   0.533E-01    0.978E-02
DAV:   2    -0.628131842537E+03   -0.13968E-03   -0.22290E-03 27204   0.103E-01    0.764E-02
DAV:   3    -0.628131833690E+03    0.88464E-05   -0.11722E-04 14196   0.335E-02
  61 F= -.62813183E+03 E0= -.62813183E+03  d E =-.266300E-03  mag=    20.0000
       N       E                     dE             d eps       ncg     rms          rms(c)
DAV:   1    -0.628131971339E+03   -0.12880E-03   -0.46419E-03 22584   0.140E-01    0.448E-02
DAV:   2    -0.628131953213E+03    0.18127E-04   -0.16730E-04 12792   0.351E-02
  62 F= -.62813195E+03 E0= -.62813195E+03  d E =-.119522E-03  mag=    20.0000
       N       E                     dE             d eps       ncg     rms          rms(c)
DAV:   1    -0.628132004325E+03   -0.32985E-04   -0.33518E-02 21504   0.367E-01    0.697E-02
DAV:   2    -0.628132055124E+03   -0.50799E-04   -0.12823E-03 27768   0.889E-02    0.723E-02
DAV:   3    -0.628132039029E+03    0.16094E-04   -0.82329E-05 12528   0.316E-02
  63 F= -.62813204E+03 E0= -.62813204E+03  d E =-.858169E-04  mag=    20.0000
       N       E                     dE             d eps       ncg     rms          rms(c)
DAV:   1    -0.628132174390E+03   -0.11927E-03   -0.20954E-01 21504   0.912E-01    0.172E-01
DAV:   2    -0.628132576044E+03   -0.40165E-03   -0.81242E-03 29172   0.221E-01    0.190E-01
DAV:   3    -0.628132481720E+03    0.94325E-04   -0.81075E-04 25992   0.736E-02
  64 F= -.62813248E+03 E0= -.62813248E+03  d E =-.442690E-03  mag=    20.0000
       N       E                     dE             d eps       ncg     rms          rms(c)
DAV:   1    -0.628132689730E+03   -0.11369E-03   -0.82107E-02 21504   0.532E-01    0.144E-01
DAV:   2    -0.628132766656E+03   -0.76926E-04   -0.50984E-03 28992   0.175E-01    0.173E-01
DAV:   3    -0.628132672434E+03    0.94222E-04   -0.63576E-04 24060   0.587E-02
  65 F= -.62813267E+03 E0= -.62813267E+03  d E =-.190714E-03  mag=    20.0000
       N       E                     dE             d eps       ncg     rms          rms(c)
DAV:   1    -0.628132854767E+03   -0.88111E-04   -0.60907E-02 21528   0.488E-01    0.972E-02
DAV:   2    -0.628133041537E+03   -0.18677E-03   -0.25409E-03 29424   0.107E-01    0.851E-02
DAV:   3    -0.628132990871E+03    0.50666E-04   -0.15110E-04 16020   0.394E-02
  66 F= -.62813299E+03 E0= -.62813299E+03  d E =-.318437E-03  mag=    20.0000
       N       E                     dE             d eps       ncg     rms          rms(c)
DAV:   1    -0.628133269895E+03   -0.22836E-03   -0.72971E-02 21504   0.539E-01    0.144E-01
DAV:   2    -0.628133230350E+03    0.39545E-04   -0.28286E-03 29040   0.133E-01    0.115E-01
DAV:   3    -0.628133202773E+03    0.27577E-04   -0.39635E-04 21456   0.515E-02
  67 F= -.62813320E+03 E0= -.62813320E+03  d E =-.211902E-03  mag=    20.0000
       N       E                     dE             d eps       ncg     rms          rms(c)
DAV:   1    -0.628133392216E+03   -0.16187E-03   -0.18601E-02 21528   0.263E-01    0.661E-02
DAV:   2    -0.628133423585E+03   -0.31369E-04   -0.11780E-03 28116   0.808E-02    0.783E-02
DAV:   3    -0.628133400562E+03    0.23023E-04   -0.97449E-05 12792   0.294E-02
  68 F= -.62813340E+03 E0= -.62813340E+03  d E =-.197789E-03  mag=    20.0000
       N       E                     dE             d eps       ncg     rms          rms(c)
DAV:   1    -0.628133502558E+03   -0.78973E-04   -0.19167E-02 21576   0.274E-01    0.434E-02
DAV:   2    -0.628133547992E+03   -0.45434E-04   -0.49560E-04 20232   0.483E-02
  69 F= -.62813355E+03 E0= -.62813355E+03  d E =-.147430E-03  mag=    20.0000
       N       E                     dE             d eps       ncg     rms          rms(c)
DAV:   1    -0.628133513252E+03   -0.10694E-04   -0.88870E-02 21504   0.581E-01    0.126E-01
DAV:   2    -0.628133827851E+03   -0.31460E-03   -0.23852E-03 26124   0.108E-01    0.764E-02
DAV:   3    -0.628133851207E+03   -0.23356E-04   -0.10208E-04 13080   0.297E-02
  70 F= -.62813385E+03 E0= -.62813385E+03  d E =-.303215E-03  mag=    20.0000
       N       E                     dE             d eps       ncg     rms          rms(c)
DAV:   1    -0.628133790592E+03    0.37259E-04   -0.15861E-01 21504   0.786E-01    0.131E-01
DAV:   2    -0.628134214510E+03   -0.42392E-03   -0.43350E-03 25884   0.142E-01    0.835E-02
DAV:   3    -0.628134212542E+03    0.19679E-05   -0.15409E-04 15696   0.357E-02
  71 F= -.62813421E+03 E0= -.62813421E+03  d E =-.361335E-03  mag=    20.0000
       N       E                     dE             d eps       ncg     rms          rms(c)
DAV:   1    -0.628132389911E+03    0.18246E-02   -0.40162E-01 21504   0.125E+00    0.215E-01
DAV:   2    -0.628133580323E+03   -0.11904E-02   -0.11582E-02 25524   0.236E-01    0.138E-01
DAV:   3    -0.628133630427E+03   -0.50104E-04   -0.50581E-04 23472   0.636E-02
  72 F= -.62813363E+03 E0= -.62813363E+03  d E =0.582115E-03  mag=    20.0000
       N       E                     dE             d eps       ncg     rms          rms(c)
DAV:   1    -0.628133499291E+03    0.81032E-04   -0.26024E-01 21504   0.101E+00    0.153E-01
DAV:   2    -0.628134069416E+03   -0.57012E-03   -0.85328E-03 26328   0.202E-01    0.127E-01
DAV:   3    -0.628134047301E+03    0.22115E-04   -0.48219E-04 22536   0.571E-02
  73 F= -.62813405E+03 E0= -.62813405E+03  d E =-.416874E-03  mag=    20.0000
       N       E                     dE             d eps       ncg     rms          rms(c)
DAV:   1    -0.628134125648E+03   -0.56232E-04   -0.11628E-02 21648   0.200E-01    0.533E-02
DAV:   2    -0.628134184556E+03   -0.58908E-04   -0.10735E-03 27564   0.722E-02    0.759E-02
DAV:   3    -0.628134157362E+03    0.27195E-04   -0.71722E-05 12408   0.250E-02
  74 F= -.62813416E+03 E0= -.62813416E+03  d E =-.110060E-03  mag=    20.0000
       N       E                     dE             d eps       ncg     rms          rms(c)
DAV:   1    -0.628134121907E+03    0.62649E-04   -0.92370E-04 19920   0.602E-02    0.344E-02
DAV:   2    -0.628134121011E+03    0.89530E-06   -0.75106E-05 11904   0.198E-02
  75 F= -.62813412E+03 E0= -.62813412E+03  d E =0.363501E-04  mag=    20.0000
       N       E                     dE             d eps       ncg     rms          rms(c)
DAV:   1    -0.628134243790E+03   -0.12188E-03   -0.65101E-02 21528   0.508E-01    0.691E-02
DAV:   2    -0.628134398533E+03   -0.15474E-03   -0.20921E-03 27588   0.103E-01    0.635E-02
DAV:   3    -0.628134383336E+03    0.15197E-04   -0.89963E-05 12924   0.290E-02
  76 F= -.62813438E+03 E0= -.62813438E+03  d E =-.262325E-03  mag=    20.0000
       N       E                     dE             d eps       ncg     rms          rms(c)
DAV:   1    -0.628134468476E+03   -0.69943E-04   -0.17285E-02 21552   0.259E-01    0.515E-02
DAV:   2    -0.628134507886E+03   -0.39411E-04   -0.49605E-04 21900   0.523E-02
  77 F= -.62813451E+03 E0= -.62813451E+03  d E =-.124550E-03  mag=    20.0000
       N       E                     dE             d eps       ncg     rms          rms(c)
DAV:   1    -0.628134567318E+03   -0.98842E-04   -0.30675E-02 21552   0.342E-01    0.725E-02
DAV:   2    -0.628134680948E+03   -0.11363E-03   -0.95736E-04 24972   0.689E-02    0.542E-02
DAV:   3    -0.628134681278E+03   -0.32916E-06   -0.55032E-05 12144   0.214E-02
  78 F= -.62813468E+03 E0= -.62813468E+03  d E =-.173391E-03  mag=    20.0000
       N       E                     dE             d eps       ncg     rms          rms(c)
DAV:   1    -0.628134733088E+03   -0.52139E-04   -0.37304E-03 20676   0.120E-01    0.272E-02
DAV:   2    -0.628134741014E+03   -0.79269E-05   -0.83218E-05 11664   0.219E-02
  79 F= -.62813474E+03 E0= -.62813474E+03  d E =-.597369E-04  mag=    20.0000
       N       E                     dE             d eps       ncg     rms          rms(c)
DAV:   1    -0.628134745879E+03   -0.12791E-04   -0.16177E-02 21552   0.249E-01    0.715E-02
DAV:   2    -0.628134801346E+03   -0.55467E-04   -0.68592E-04 24444   0.692E-02
  80 F= -.62813480E+03 E0= -.62813480E+03  d E =-.603315E-04  mag=    20.0000
       N       E                     dE             d eps       ncg     rms          rms(c)
DAV:   1    -0.628134884719E+03   -0.13884E-03   -0.42672E-02 21540   0.409E-01    0.540E-02
DAV:   2    -0.628134996875E+03   -0.11216E-03   -0.14032E-03 27828   0.913E-02    0.642E-02
DAV:   3    -0.628134988592E+03    0.82829E-05   -0.61554E-05 12528   0.261E-02
  81 F= -.62813499E+03 E0= -.62813499E+03  d E =-.187246E-03  mag=    20.0000
       N       E                     dE             d eps       ncg     rms          rms(c)
DAV:   1    -0.628135027062E+03   -0.30187E-04   -0.14708E-03 19824   0.762E-02    0.276E-02
DAV:   2    -0.628135025537E+03    0.15249E-05   -0.51361E-05 11676   0.177E-02
  82 F= -.62813503E+03 E0= -.62813503E+03  d E =-.369446E-04  mag=    20.0000
       N       E                     dE             d eps       ncg     rms          rms(c)
DAV:   1    -0.628135081577E+03   -0.54515E-04   -0.46931E-02 21528   0.424E-01    0.810E-02
DAV:   2    -0.628135229803E+03   -0.14823E-03   -0.12296E-03 24996   0.764E-02    0.497E-02
DAV:   3    -0.628135238742E+03   -0.89392E-05   -0.56272E-05 12240   0.200E-02
  83 F= -.62813524E+03 E0= -.62813524E+03  d E =-.213205E-03  mag=    20.0000
       N       E                     dE             d eps       ncg     rms          rms(c)
DAV:   1    -0.628135364179E+03   -0.13438E-03   -0.28647E-02 21528   0.337E-01    0.666E-02
DAV:   2    -0.628135408823E+03   -0.44645E-04   -0.90336E-04 25068   0.687E-02
  84 F= -.62813541E+03 E0= -.62813541E+03  d E =-.170081E-03  mag=    20.0000
       N       E                     dE             d eps       ncg     rms          rms(c)
DAV:   1    -0.628135404609E+03   -0.40430E-04   -0.59472E-02 21504   0.474E-01    0.108E-01
DAV:   2    -0.628135619216E+03   -0.21461E-03   -0.15816E-03 25284   0.870E-02    0.595E-02
DAV:   3    -0.628135633330E+03   -0.14114E-04   -0.66565E-05 12708   0.244E-02
  85 F= -.62813563E+03 E0= -.62813563E+03  d E =-.224506E-03  mag=    20.0000
       N       E                     dE             d eps       ncg     rms          rms(c)
DAV:   1    -0.628135676123E+03   -0.56907E-04   -0.27152E-03 20268   0.103E-01    0.235E-02
DAV:   2    -0.628135678812E+03   -0.26893E-05   -0.64710E-05 11760   0.200E-02
  86 F= -.62813568E+03 E0= -.62813568E+03  d E =-.454823E-04  mag=    20.0000
       N       E                     dE             d eps       ncg     rms          rms(c)
DAV:   1    -0.628135710773E+03   -0.34650E-04   -0.13164E-02 21684   0.219E-01    0.813E-02
DAV:   2    -0.628135752227E+03   -0.41454E-04   -0.39526E-04 18300   0.489E-02
  87 F= -.62813575E+03 E0= -.62813575E+03  d E =-.734146E-04  mag=    20.0000
       N       E                     dE             d eps       ncg     rms          rms(c)
DAV:   1    -0.628135835679E+03   -0.12491E-03   -0.18493E-02 21540   0.269E-01    0.324E-02
DAV:   2    -0.628135883275E+03   -0.47596E-04   -0.56008E-04 21276   0.528E-02
  88 F= -.62813588E+03 E0= -.62813588E+03  d E =-.131048E-03  mag=    20.0000
       N       E                     dE             d eps       ncg     rms          rms(c)
DAV:   1    -0.628135952575E+03   -0.11690E-03   -0.17649E-02 21564   0.263E-01    0.393E-02
DAV:   2    -0.628135996961E+03   -0.44386E-04   -0.55581E-04 21912   0.571E-02
  89 F= -.62813600E+03 E0= -.62813600E+03  d E =-.113686E-03  mag=    20.0000
       N       E                     dE             d eps       ncg     rms          rms(c)
DAV:   1    -0.628136044555E+03   -0.91980E-04   -0.43169E-03 21132   0.130E-01    0.294E-02
DAV:   2    -0.628136048269E+03   -0.37141E-05   -0.13647E-04 12900   0.317E-02
  90 F= -.62813605E+03 E0= -.62813605E+03  d E =-.513083E-04  mag=    20.0000
       N       E                     dE             d eps       ncg     rms          rms(c)
DAV:   1    -0.628135915575E+03    0.12898E-03   -0.95900E-03 21480   0.189E-01    0.519E-02
DAV:   2    -0.628135955988E+03   -0.40413E-04   -0.22635E-04 15396   0.377E-02
  91 F= -.62813596E+03 E0= -.62813596E+03  d E =0.922813E-04  mag=    20.0000
       N       E                     dE             d eps       ncg     rms          rms(c)
DAV:   1    -0.628135965897E+03   -0.50322E-04   -0.23855E-04 13968   0.279E-02    0.203E-02
DAV:   2    -0.628135968667E+03   -0.27705E-05   -0.18040E-05 12072   0.136E-02
  92 F= -.62813597E+03 E0= -.62813597E+03  d E =-.126795E-04  mag=    20.0000
       N       E                     dE             d eps       ncg     rms          rms(c)
DAV:   1    -0.628135884398E+03    0.81499E-04   -0.82072E-03 21612   0.170E-01    0.586E-02
DAV:   2    -0.628135922697E+03   -0.38300E-04   -0.22544E-04 14988   0.443E-02
  93 F= -.62813592E+03 E0= -.62813592E+03  d E =0.459701E-04  mag=    20.0000
       N       E                     dE             d eps       ncg     rms          rms(c)
DAV:   1    -0.628135701223E+03    0.18317E-03   -0.72848E-02 21528   0.512E-01    0.145E-01
DAV:   2    -0.628136076337E+03   -0.37511E-03   -0.17793E-03 24432   0.932E-02    0.730E-02
DAV:   3    -0.628136130167E+03   -0.53831E-04   -0.99500E-05 13104   0.242E-02
  94 F= -.62813613E+03 E0= -.62813613E+03  d E =-.207470E-03  mag=    20.0000
       N       E                     dE             d eps       ncg     rms          rms(c)
DAV:   1    -0.628136064647E+03    0.11690E-04   -0.20271E-02 21552   0.258E-01    0.991E-02
DAV:   2    -0.628136203804E+03   -0.13916E-03   -0.50378E-04 20292   0.583E-02    0.575E-02
DAV:   3    -0.628136232040E+03   -0.28236E-04   -0.68525E-05 12336   0.250E-02
  95 F= -.62813623E+03 E0= -.62813623E+03  d E =-.101873E-03  mag=    20.0000
       N       E                     dE             d eps       ncg     rms          rms(c)
DAV:   1    -0.628136257512E+03   -0.53708E-04   -0.17640E-03 19872   0.833E-02    0.198E-02
DAV:   2    -0.628136259258E+03   -0.17464E-05   -0.66809E-05 11184   0.239E-02
  96 F= -.62813626E+03 E0= -.62813626E+03  d E =-.272185E-04  mag=    20.0000
       N       E                     dE             d eps       ncg     rms          rms(c)
DAV:   1    -0.628136365768E+03   -0.10826E-03   -0.41380E-02 21528   0.406E-01    0.740E-02
DAV:   2    -0.628136419476E+03   -0.53709E-04   -0.14089E-03 26748   0.837E-02    0.571E-02
DAV:   3    -0.628136409951E+03    0.95252E-05   -0.86854E-05 13644   0.294E-02
  97 F= -.62813641E+03 E0= -.62813641E+03  d E =-.150693E-03  mag=    20.0000
       N       E                     dE             d eps       ncg     rms          rms(c)
DAV:   1    -0.628136493870E+03   -0.74393E-04   -0.22982E-02 21528   0.299E-01    0.366E-02
DAV:   2    -0.628136547231E+03   -0.53361E-04   -0.61389E-04 23028   0.527E-02
  98 F= -.62813655E+03 E0= -.62813655E+03  d E =-.137280E-03  mag=    20.0000
       N       E                     dE             d eps       ncg     rms          rms(c)
DAV:   1    -0.628136609481E+03   -0.11561E-03   -0.17399E-02 21648   0.260E-01    0.596E-02
DAV:   2    -0.628136639309E+03   -0.29828E-04   -0.51254E-04 21396   0.566E-02
  99 F= -.62813664E+03 E0= -.62813664E+03  d E =-.920784E-04  mag=    20.0000
       N       E                     dE             d eps       ncg     rms          rms(c)
DAV:   1    -0.628136667076E+03   -0.57595E-04   -0.44591E-03 20820   0.132E-01    0.380E-02
DAV:   2    -0.628136672767E+03   -0.56907E-05   -0.16889E-04 14592   0.364E-02
 100 F= -.62813667E+03 E0= -.62813667E+03  d E =-.334577E-04  mag=    20.0000
       N       E                     dE             d eps       ncg     rms          rms(c)
DAV:   1    -0.628136692074E+03   -0.24997E-04   -0.37774E-02 21528   0.382E-01    0.609E-02
DAV:   2    -0.628136807536E+03   -0.11546E-03   -0.13975E-03 26916   0.891E-02    0.709E-02
DAV:   3    -0.628136795507E+03    0.12029E-04   -0.10375E-04 12840   0.269E-02
 101 F= -.62813680E+03 E0= -.62813680E+03  d E =-.122740E-03  mag=    20.0000
       N       E                     dE             d eps       ncg     rms          rms(c)
DAV:   1    -0.628136871138E+03   -0.63601E-04   -0.31742E-03 22044   0.115E-01    0.427E-02
DAV:   2    -0.628136865344E+03    0.57932E-05   -0.31259E-04 18708   0.433E-02
 102 F= -.62813687E+03 E0= -.62813687E+03  d E =-.698369E-04  mag=    20.0000
       N       E                     dE             d eps       ncg     rms          rms(c)
DAV:   1    -0.628136930583E+03   -0.59445E-04   -0.32203E-02 21528   0.355E-01    0.419E-02
DAV:   2    -0.628137005943E+03   -0.75360E-04   -0.87760E-04 23580   0.655E-02
 103 F= -.62813701E+03 E0= -.62813701E+03  d E =-.140598E-03  mag=    20.0000
       N       E                     dE             d eps       ncg     rms          rms(c)
DAV:   1    -0.628137054446E+03   -0.12386E-03   -0.31246E-02 21540   0.347E-01    0.654E-02
DAV:   2    -0.628137143479E+03   -0.89033E-04   -0.86249E-04 24384   0.647E-02
 104 F= -.62813714E+03 E0= -.62813714E+03  d E =-.137536E-03  mag=    20.0000
       N       E                     dE             d eps       ncg     rms          rms(c)
DAV:   1    -0.628137134043E+03   -0.79597E-04   -0.28174E-02 21540   0.323E-01    0.850E-02
DAV:   2    -0.628137254744E+03   -0.12070E-03   -0.72373E-04 22656   0.594E-02    0.478E-02
DAV:   3    -0.628137266487E+03   -0.11743E-04   -0.41616E-05 12288   0.172E-02
 105 F= -.62813727E+03 E0= -.62813727E+03  d E =-.123007E-03  mag=    20.0000
       N       E                     dE             d eps       ncg     rms          rms(c)
DAV:   1    -0.628137249600E+03    0.51442E-05   -0.10778E-03 19464   0.608E-02    0.277E-02
DAV:   2    -0.628137252781E+03   -0.31817E-05   -0.36836E-05 11856   0.182E-02
 106 F= -.62813725E+03 E0= -.62813725E+03  d E =0.137053E-04  mag=    20.0000
       N       E                     dE             d eps       ncg     rms          rms(c)
DAV:   1    -0.628137204276E+03    0.45323E-04   -0.31459E-03 21492   0.112E-01    0.198E-02
DAV:   2    -0.628137210745E+03   -0.64682E-05   -0.81065E-05 12072   0.235E-02
 107 F= -.62813721E+03 E0= -.62813721E+03  d E =0.420366E-04  mag=    20.0000
       N       E                     dE             d eps       ncg     rms          rms(c)
DAV:   1    -0.628137265880E+03   -0.61603E-04   -0.10174E-02 21636   0.201E-01    0.296E-02
DAV:   2    -0.628137284229E+03   -0.18349E-04   -0.26570E-04 14172   0.390E-02
 108 F= -.62813728E+03 E0= -.62813728E+03  d E =-.734842E-04  mag=    20.0000
