       N       E                     dE             d eps       ncg     rms          rms(c)
DAV:   1     0.550995674808E+04    0.55100E+04   -0.19752E+05 21504   0.125E+03
DAV:   2     0.484482866503E+03   -0.50255E+04   -0.46235E+04 22284   0.349E+02
DAV:   3    -0.722953939587E+03   -0.12074E+04   -0.11700E+04 25320   0.178E+02
DAV:   4    -0.825059681222E+03   -0.10211E+03   -0.10067E+03 32160   0.589E+01
DAV:   5    -0.828787447543E+03   -0.37278E+01   -0.36848E+01 34080   0.128E+01
DAV:   6    -0.828948796716E+03   -0.16135E+00   -0.16020E+00 33972   0.234E+00
DAV:   7    -0.828957087987E+03   -0.82913E-02   -0.82620E-02 34128   0.537E-01
DAV:   8    -0.828957623585E+03   -0.53560E-03   -0.53462E-03 27840   0.119E-01
DAV:   9    -0.828957661846E+03   -0.38261E-04   -0.38197E-04 20004   0.366E-02
DAV:  10    -0.828957665973E+03   -0.41269E-05   -0.41104E-05 17556   0.169E-02
DAV:  11    -0.828957667542E+03   -0.15690E-05   -0.15618E-05 16572   0.117E-02
DAV:  12    -0.828957668445E+03   -0.90364E-06   -0.90012E-06 15984   0.875E-03    0.115E+02
DAV:  13    -0.614343782425E+03    0.21461E+03   -0.12728E+03 32232   0.828E+01    0.792E+01
DAV:  14    -0.652483962158E+03   -0.38140E+02   -0.67698E+02 35916   0.863E+01    0.986E+01
DAV:  15    -0.651684540920E+03    0.79942E+00   -0.52774E+02 34452   0.763E+01    0.783E+01
DAV:  16    -0.620117558690E+03    0.31567E+02   -0.13094E+02 32916   0.544E+01    0.405E+01
DAV:  17    -0.624223202774E+03   -0.41056E+01   -0.51220E+01 32304   0.212E+01    0.245E+01
DAV:  18    -0.623713477539E+03    0.50973E+00   -0.28972E+01 35340   0.312E+01    0.276E+01
DAV:  19    -0.628844037455E+03   -0.51306E+01   -0.43851E+01 32520   0.139E+01    0.440E+01
DAV:  20    -0.624698512237E+03    0.41455E+01   -0.12471E+02 32832   0.137E+01    0.191E+01
DAV:  21    -0.626247717770E+03   -0.15492E+01   -0.68383E+00 32328   0.903E+00    0.254E+01
DAV:  22    -0.624886239929E+03    0.13615E+01   -0.41832E+00 31044   0.834E+00    0.126E+01
DAV:  23    -0.625292015118E+03   -0.40578E+00   -0.10848E+01 34968   0.770E+00    0.124E+01
DAV:  24    -0.624622498849E+03    0.66952E+00   -0.12641E+00 34176   0.736E+00    0.107E+01
DAV:  25    -0.624243831977E+03    0.37867E+00   -0.37678E+00 34188   0.698E+00    0.810E+00
DAV:  26    -0.624716788007E+03   -0.47296E+00   -0.18093E+00 33276   0.497E+00    0.129E+01
DAV:  27    -0.625049762236E+03   -0.33297E+00   -0.24602E-01 31428   0.254E+00    0.123E+01
DAV:  28    -0.625245216553E+03   -0.19545E+00   -0.10103E-01 33228   0.264E+00    0.113E+01
DAV:  29    -0.625642441724E+03   -0.39723E+00   -0.23857E-01 35700   0.401E+00    0.919E+00
DAV:  30    -0.625870266000E+03   -0.22782E+00   -0.42972E-01 31692   0.193E+00    0.749E+00
DAV:  31    -0.625749240841E+03    0.12103E+00   -0.10766E-01 31524   0.208E+00    0.690E+00
DAV:  32    -0.625576895192E+03    0.17235E+00   -0.11189E-01 35724   0.162E+00    0.615E+00
DAV:  33    -0.625390445882E+03    0.18645E+00   -0.12530E-01 34212   0.153E+00    0.509E+00
DAV:  34    -0.625298785327E+03    0.91661E-01   -0.61164E-02 32028   0.713E-01    0.473E+00
DAV:  35    -0.625216072386E+03    0.82713E-01   -0.10700E-02 34872   0.555E-01    0.448E+00
DAV:  36    -0.625042315009E+03    0.17376E+00   -0.36838E-02 37440   0.139E+00    0.399E+00
DAV:  37    -0.624750014877E+03    0.29230E+00   -0.22222E-01 35364   0.314E+00    0.273E+00
DAV:  38    -0.624739872291E+03    0.10143E-01   -0.25490E-01 29796   0.835E-01    0.235E+00
DAV:  39    -0.624729093797E+03    0.10778E-01   -0.20064E-02 31776   0.338E-01    0.230E+00
DAV:  40    -0.624703961288E+03    0.25133E-01   -0.12736E-02 37128   0.658E-01    0.179E+00
DAV:  41    -0.624655379600E+03    0.48582E-01   -0.59202E-02 35592   0.146E+00    0.965E-01
DAV:  42    -0.624652084841E+03    0.32948E-02   -0.69909E-02 32796   0.724E-01    0.647E-01
DAV:  43    -0.624654825870E+03   -0.27410E-02   -0.15442E-02 27264   0.307E-01    0.632E-01
DAV:  44    -0.624654953664E+03   -0.12779E-03   -0.21273E-03 30984   0.115E-01    0.625E-01
DAV:  45    -0.624653703307E+03    0.12504E-02   -0.20904E-03 31176   0.296E-01    0.400E-01
DAV:  46    -0.624653254844E+03    0.44846E-03   -0.40659E-03 35628   0.318E-01    0.313E-01
DAV:  47    -0.624654101076E+03   -0.84623E-03   -0.32768E-03 34704   0.233E-01    0.289E-01
DAV:  48    -0.624654773072E+03   -0.67200E-03   -0.18597E-03 31260   0.149E-01    0.229E-01
DAV:  49    -0.624654948263E+03   -0.17519E-03   -0.15052E-03 31356   0.137E-01    0.198E-01
DAV:  50    -0.624654968807E+03   -0.20544E-04   -0.10712E-03 30960   0.158E-01    0.220E-01
DAV:  51    -0.624655181380E+03   -0.21257E-03   -0.12253E-03 32208   0.147E-01    0.245E-01
DAV:  52    -0.624655462249E+03   -0.28087E-03   -0.99935E-04 27684   0.748E-02    0.257E-01
DAV:  53    -0.624655973185E+03   -0.51094E-03   -0.63854E-04 21264   0.118E-01    0.272E-01
DAV:  54    -0.624655906236E+03    0.66949E-04   -0.58754E-04 26004   0.786E-02
   1 F= -.62465591E+03 E0= -.62465564E+03  d E =-.624656E+03  mag=    19.9627
       N       E                     dE             d eps       ncg     rms          rms(c)
DAV:   1    -0.624968360475E+03   -0.31239E+00   -0.13812E+03 21504   0.736E+01    0.181E+01
DAV:   2    -0.627554383554E+03   -0.25860E+01   -0.87580E+01 31788   0.299E+01    0.213E+01
DAV:   3    -0.627055528389E+03    0.49886E+00   -0.13539E+01 30120   0.809E+00    0.144E+01
DAV:   4    -0.625989341685E+03    0.10662E+01   -0.38805E+00 32700   0.490E+00    0.100E+01
DAV:   5    -0.625940056486E+03    0.49285E-01   -0.24208E+00 29556   0.407E+00    0.461E+00
DAV:   6    -0.625817982717E+03    0.12207E+00   -0.11580E+00 32088   0.309E+00    0.282E+00
DAV:   7    -0.625780462404E+03    0.37520E-01   -0.65306E-01 30084   0.196E+00    0.199E+00
DAV:   8    -0.625779320116E+03    0.11423E-02   -0.84129E-02 30912   0.104E+00    0.107E+00
DAV:   9    -0.625778559534E+03    0.76058E-03   -0.28370E-02 32304   0.443E-01    0.823E-01
DAV:  10    -0.625777029959E+03    0.15296E-02   -0.82595E-03 29628   0.256E-01    0.503E-01
DAV:  11    -0.625774571855E+03    0.24581E-02   -0.14022E-02 31476   0.261E-01    0.207E-01
DAV:  12    -0.625774664835E+03   -0.92980E-04   -0.38574E-03 31104   0.132E-01    0.108E-01
DAV:  13    -0.625774681941E+03   -0.17107E-04   -0.38182E-04 21228   0.531E-02
   2 F= -.62577468E+03 E0= -.62577468E+03  d E =-.111878E+01  mag=    19.9771
       N       E                     dE             d eps       ncg     rms          rms(c)
DAV:   1    -0.628643080957E+03   -0.28684E+01   -0.16761E+02 21564   0.262E+01    0.108E+01
DAV:   2    -0.627969124572E+03    0.67396E+00   -0.13616E+01 30156   0.116E+01    0.129E+01
DAV:   3    -0.627775446550E+03    0.19368E+00   -0.33106E+00 30828   0.392E+00    0.834E+00
DAV:   4    -0.627682902281E+03    0.92544E-01   -0.13505E+00 31812   0.277E+00    0.672E+00
DAV:   5    -0.627605935264E+03    0.76967E-01   -0.32183E-01 28932   0.210E+00    0.301E+00
DAV:   6    -0.627572472323E+03    0.33463E-01   -0.40213E-01 31740   0.147E+00    0.122E+00
DAV:   7    -0.627569798797E+03    0.26735E-02   -0.11052E-01 31164   0.841E-01    0.938E-01
DAV:   8    -0.627567127534E+03    0.26713E-02   -0.13156E-02 31968   0.523E-01    0.330E-01
DAV:   9    -0.627566608084E+03    0.51945E-03   -0.10616E-02 30564   0.254E-01    0.175E-01
DAV:  10    -0.627566610945E+03   -0.28612E-05   -0.32857E-03 29928   0.126E-01    0.107E-01
DAV:  11    -0.627566557131E+03    0.53814E-04   -0.89089E-04 27528   0.790E-02
   3 F= -.62756656E+03 E0= -.62756656E+03  d E =-.179188E+01  mag=    19.9847
       N       E                     dE             d eps       ncg     rms          rms(c)
DAV:   1    -0.627509158229E+03    0.57453E-01   -0.99485E+01 21504   0.196E+01    0.444E+00
DAV:   2    -0.627826483875E+03   -0.31733E+00   -0.50389E+00 29904   0.575E+00    0.584E+00
DAV:   3    -0.627783994770E+03    0.42489E-01   -0.52552E-01 29964   0.173E+00    0.402E+00
DAV:   4    -0.627740322600E+03    0.43672E-01   -0.16590E-01 28020   0.826E-01    0.312E+00
DAV:   5    -0.627728037046E+03    0.12286E-01   -0.18562E-01 27732   0.903E-01    0.142E+00
DAV:   6    -0.627715123053E+03    0.12914E-01   -0.94245E-02 32508   0.795E-01    0.895E-01
DAV:   7    -0.627713058410E+03    0.20646E-02   -0.59385E-02 28044   0.470E-01    0.455E-01
DAV:   8    -0.627713165869E+03   -0.10746E-03   -0.50767E-03 29424   0.191E-01    0.257E-01
DAV:   9    -0.627713113720E+03    0.52148E-04   -0.21275E-03 31428   0.110E-01    0.178E-01
DAV:  10    -0.627713019469E+03    0.94252E-04   -0.67373E-04 25056   0.615E-02
   4 F= -.62771302E+03 E0= -.62771302E+03  d E =-.146462E+00  mag=    19.9898
       N       E                     dE             d eps       ncg     rms          rms(c)
DAV:   1    -0.627875207069E+03   -0.16209E+00   -0.30412E+01 21504   0.108E+01    0.247E+00
DAV:   2    -0.627938964664E+03   -0.63758E-01   -0.16012E+00 29952   0.327E+00    0.335E+00
DAV:   3    -0.627928152794E+03    0.10812E-01   -0.17520E-01 29040   0.944E-01    0.250E+00
DAV:   4    -0.627909445376E+03    0.18707E-01   -0.70097E-02 31788   0.571E-01    0.208E+00
DAV:   5    -0.627905802395E+03    0.36430E-02   -0.76993E-02 28764   0.593E-01    0.112E+00
DAV:   6    -0.627899159638E+03    0.66428E-02   -0.43304E-02 32328   0.542E-01    0.692E-01
DAV:   7    -0.627897928085E+03    0.12316E-02   -0.26225E-02 28812   0.329E-01    0.436E-01
DAV:   8    -0.627897967714E+03   -0.39628E-04   -0.29752E-03 30696   0.154E-01    0.229E-01
DAV:   9    -0.627897933714E+03    0.34000E-04   -0.14023E-03 30732   0.878E-02    0.168E-01
DAV:  10    -0.627897855461E+03    0.78253E-04   -0.29310E-04 18804   0.471E-02
   5 F= -.62789786E+03 E0= -.62789786E+03  d E =-.184836E+00  mag=    19.9930
       N       E                     dE             d eps       ncg     rms          rms(c)
DAV:   1    -0.627966012407E+03   -0.68079E-01   -0.18024E+01 21504   0.854E+00    0.206E+00
DAV:   2    -0.627972169163E+03   -0.61568E-02   -0.75562E-01 29232   0.205E+00    0.176E+00
DAV:   3    -0.627965001533E+03    0.71676E-02   -0.97257E-02 29616   0.814E-01    0.829E-01
DAV:   4    -0.627961252439E+03    0.37491E-02   -0.26216E-02 31788   0.410E-01    0.647E-01
DAV:   5    -0.627960162718E+03    0.10897E-02   -0.61473E-03 30336   0.219E-01    0.338E-01
DAV:   6    -0.627959813693E+03    0.34903E-03   -0.31502E-03 32172   0.129E-01    0.133E-01
DAV:   7    -0.627959855056E+03   -0.41363E-04   -0.76491E-04 25884   0.685E-02
   6 F= -.62795986E+03 E0= -.62795986E+03  d E =-.619996E-01  mag=    19.9947
       N       E                     dE             d eps       ncg     rms          rms(c)
DAV:   1    -0.628018460446E+03   -0.58647E-01   -0.54367E+00 21852   0.479E+00    0.155E+00
DAV:   2    -0.628005999044E+03    0.12461E-01   -0.35588E-01 31140   0.157E+00    0.154E+00
DAV:   3    -0.627998737724E+03    0.72613E-02   -0.47115E-02 30948   0.560E-01    0.764E-01
DAV:   4    -0.627997165808E+03    0.15719E-02   -0.88198E-03 32040   0.255E-01    0.562E-01
DAV:   5    -0.627996775524E+03    0.39028E-03   -0.24530E-03 30888   0.158E-01    0.258E-01
DAV:   6    -0.627996611699E+03    0.16383E-03   -0.21647E-03 32148   0.108E-01    0.766E-02
DAV:   7    -0.627996614934E+03   -0.32347E-05   -0.26690E-04 16956   0.597E-02
   7 F= -.62799661E+03 E0= -.62799661E+03  d E =-.367599E-01  mag=    19.9959
       N       E                     dE             d eps       ncg     rms          rms(c)
DAV:   1    -0.628009495884E+03   -0.12884E-01   -0.51165E+00 21504   0.448E+00    0.614E-01
DAV:   2    -0.628022850486E+03   -0.13355E-01   -0.17129E-01 28560   0.941E-01    0.728E-01
DAV:   3    -0.628021855498E+03    0.99499E-03   -0.92730E-03 28476   0.241E-01    0.480E-01
DAV:   4    -0.628021126407E+03    0.72909E-03   -0.28914E-03 29292   0.115E-01    0.364E-01
DAV:   5    -0.628020799457E+03    0.32695E-03   -0.11795E-03 28308   0.100E-01    0.188E-01
DAV:   6    -0.628020736988E+03    0.62468E-04   -0.12182E-03 30492   0.834E-02    0.914E-02
DAV:   7    -0.628020732320E+03    0.46680E-05   -0.23928E-04 14820   0.389E-02
   8 F= -.62802073E+03 E0= -.62802073E+03  d E =-.241174E-01  mag=    19.9969
       N       E                     dE             d eps       ncg     rms          rms(c)
DAV:   1    -0.628028539084E+03   -0.78021E-02   -0.86669E+00 21504   0.580E+00    0.122E+00
DAV:   2    -0.628042804157E+03   -0.14265E-01   -0.35336E-01 27852   0.138E+00    0.128E+00
DAV:   3    -0.628040580925E+03    0.22232E-02   -0.38213E-02 29868   0.460E-01    0.802E-01
DAV:   4    -0.628037775987E+03    0.28049E-02   -0.20543E-02 31800   0.334E-01    0.632E-01
DAV:   5    -0.628037270538E+03    0.50545E-03   -0.62198E-03 27420   0.226E-01    0.315E-01
DAV:   6    -0.628036704146E+03    0.56639E-03   -0.46310E-03 31404   0.157E-01    0.149E-01
DAV:   7    -0.628036715096E+03   -0.10949E-04   -0.22080E-03 28560   0.972E-02    0.881E-02
DAV:   8    -0.628036698030E+03    0.17065E-04   -0.24528E-04 17724   0.567E-02
   9 F= -.62803670E+03 E0= -.62803670E+03  d E =-.159657E-01  mag=    19.9977
       N       E                     dE             d eps       ncg     rms          rms(c)
DAV:   1    -0.628065287773E+03   -0.28573E-01   -0.56473E+00 21504   0.471E+00    0.945E-01
DAV:   2    -0.628074570515E+03   -0.92827E-02   -0.23862E-01 29376   0.117E+00    0.111E+00
DAV:   3    -0.628072619117E+03    0.19514E-02   -0.22428E-02 29052   0.351E-01    0.726E-01
DAV:   4    -0.628070975238E+03    0.16439E-02   -0.12992E-02 32040   0.266E-01    0.608E-01
DAV:   5    -0.628070500022E+03    0.47522E-03   -0.34122E-03 28416   0.165E-01    0.298E-01
DAV:   6    -0.628070174175E+03    0.32585E-03   -0.27889E-03 31788   0.122E-01    0.156E-01
DAV:   7    -0.628070161191E+03    0.12984E-04   -0.10452E-03 30372   0.841E-02    0.109E-01
DAV:   8    -0.628070147639E+03    0.13553E-04   -0.11080E-04 14568   0.389E-02
  10 F= -.62807015E+03 E0= -.62807015E+03  d E =-.334496E-01  mag=    19.9983
       N       E                     dE             d eps       ncg     rms          rms(c)
DAV:   1    -0.628078718090E+03   -0.85569E-02   -0.42960E+00 21504   0.414E+00    0.775E-01
DAV:   2    -0.628085913408E+03   -0.71953E-02   -0.15353E-01 29196   0.967E-01    0.750E-01
DAV:   3    -0.628085006703E+03    0.90670E-03   -0.17627E-02 30624   0.333E-01    0.435E-01
DAV:   4    -0.628084422764E+03    0.58394E-03   -0.31228E-03 31548   0.139E-01    0.301E-01
DAV:   5    -0.628084183619E+03    0.23914E-03   -0.13174E-03 29532   0.980E-02    0.152E-01
DAV:   6    -0.628084120783E+03    0.62837E-04   -0.10894E-03 30240   0.880E-02    0.644E-02
DAV:   7    -0.628084129913E+03   -0.91301E-05   -0.28598E-04 17724   0.385E-02
  11 F= -.62808413E+03 E0= -.62808413E+03  d E =-.139823E-01  mag=    19.9987
       N       E                     dE             d eps       ncg     rms          rms(c)
DAV:   1    -0.628092501143E+03   -0.83804E-02   -0.11512E+00 21504   0.212E+00    0.513E-01
DAV:   2    -0.628094485163E+03   -0.19840E-02   -0.55541E-02 29628   0.621E-01    0.588E-01
DAV:   3    -0.628093886994E+03    0.59817E-03   -0.72838E-03 30084   0.210E-01    0.372E-01
DAV:   4    -0.628093571559E+03    0.31543E-03   -0.16544E-03 29244   0.906E-02    0.283E-01
DAV:   5    -0.628093438215E+03    0.13334E-03   -0.61239E-04 25344   0.775E-02    0.128E-01
DAV:   6    -0.628093396614E+03    0.41601E-04   -0.63840E-04 26256   0.685E-02
  12 F= -.62809340E+03 E0= -.62809340E+03  d E =-.926670E-02  mag=    19.9990
       N       E                     dE             d eps       ncg     rms          rms(c)
DAV:   1    -0.628098880034E+03   -0.54418E-02   -0.16265E+00 21504   0.251E+00    0.332E-01
DAV:   2    -0.628102994120E+03   -0.41141E-02   -0.48122E-02 26784   0.469E-01    0.299E-01
DAV:   3    -0.628102935696E+03    0.58424E-04   -0.32270E-03 29388   0.125E-01    0.178E-01
DAV:   4    -0.628102756997E+03    0.17870E-03   -0.99011E-04 27948   0.835E-02    0.143E-01
DAV:   5    -0.628102727031E+03    0.29966E-04   -0.49846E-04 23532   0.571E-02
  13 F= -.62810273E+03 E0= -.62810273E+03  d E =-.933042E-02  mag=    19.9991
       N       E                     dE             d eps       ncg     rms          rms(c)
DAV:   1    -0.628106043297E+03   -0.32863E-02   -0.25313E+00 21504   0.315E+00    0.517E-01
DAV:   2    -0.628111409877E+03   -0.53666E-02   -0.87158E-02 27660   0.724E-01    0.553E-01
DAV:   3    -0.628111205567E+03    0.20431E-03   -0.10345E-02 30624   0.233E-01    0.336E-01
DAV:   4    -0.628110711096E+03    0.49447E-03   -0.26596E-03 31308   0.132E-01    0.256E-01
DAV:   5    -0.628110576892E+03    0.13420E-03   -0.11028E-03 28752   0.111E-01    0.137E-01
DAV:   6    -0.628110548172E+03    0.28720E-04   -0.12130E-03 30444   0.799E-02    0.568E-02
DAV:   7    -0.628110536327E+03    0.11845E-04   -0.32232E-04 18264   0.423E-02
  14 F= -.62811054E+03 E0= -.62811054E+03  d E =-.780930E-02  mag=    19.9993
       N       E                     dE             d eps       ncg     rms          rms(c)
DAV:   1    -0.628115873645E+03   -0.53255E-02   -0.25985E+00 21504   0.318E+00    0.416E-01
DAV:   2    -0.628122538350E+03   -0.66647E-02   -0.80870E-02 28020   0.655E-01    0.461E-01
DAV:   3    -0.628122398959E+03    0.13939E-03   -0.68039E-03 30708   0.189E-01    0.296E-01
DAV:   4    -0.628122076325E+03    0.32263E-03   -0.13407E-03 29076   0.922E-02    0.236E-01
DAV:   5    -0.628121936474E+03    0.13985E-03   -0.91902E-04 27012   0.878E-02    0.121E-01
DAV:   6    -0.628121899401E+03    0.37072E-04   -0.66912E-04 25392   0.644E-02
  15 F= -.62812190E+03 E0= -.62812190E+03  d E =-.113631E-01  mag=    19.9995
       N       E                     dE             d eps       ncg     rms          rms(c)
DAV:   1    -0.628111608242E+03    0.10328E-01   -0.14458E+00 21504   0.238E+00    0.244E-01
DAV:   2    -0.628115402490E+03   -0.37942E-02   -0.40438E-02 25800   0.437E-01    0.225E-01
DAV:   3    -0.628115398388E+03    0.41022E-05   -0.20417E-03 30816   0.103E-01    0.144E-01
DAV:   4    -0.628115272458E+03    0.12593E-03   -0.24417E-04 17916   0.474E-02    0.117E-01
DAV:   5    -0.628115197908E+03    0.74550E-04   -0.56697E-04 22512   0.704E-02
  16 F= -.62811520E+03 E0= -.62811520E+03  d E =0.670149E-02  mag=    19.9996
       N       E                     dE             d eps       ncg     rms          rms(c)
DAV:   1    -0.628118334714E+03   -0.30623E-02   -0.23373E+00 21504   0.303E+00    0.310E-01
DAV:   2    -0.628124487133E+03   -0.61524E-02   -0.63622E-02 24636   0.530E-01    0.237E-01
DAV:   3    -0.628124492576E+03   -0.54428E-05   -0.25968E-03 30480   0.113E-01    0.140E-01
DAV:   4    -0.628124341962E+03    0.15061E-03   -0.20010E-04 16320   0.517E-02    0.106E-01
DAV:   5    -0.628124263952E+03    0.78010E-04   -0.63652E-04 23508   0.741E-02
  17 F= -.62812426E+03 E0= -.62812426E+03  d E =-.906604E-02  mag=    19.9997
       N       E                     dE             d eps       ncg     rms          rms(c)
DAV:   1    -0.628127302546E+03   -0.29606E-02   -0.38578E-01 21552   0.123E+00    0.220E-01
DAV:   2    -0.628127982091E+03   -0.67955E-03   -0.12018E-02 28536   0.246E-01    0.142E-01
DAV:   3    -0.628128012773E+03   -0.30682E-04   -0.13604E-03 29016   0.900E-02    0.734E-02
DAV:   4    -0.628127962637E+03    0.50136E-04   -0.11629E-04 13548   0.367E-02
  18 F= -.62812796E+03 E0= -.62812796E+03  d E =-.369869E-02  mag=    19.9997
       N       E                     dE             d eps       ncg     rms          rms(c)
DAV:   1    -0.628130687865E+03   -0.26751E-02   -0.12236E+00 21504   0.219E+00    0.229E-01
DAV:   2    -0.628133848278E+03   -0.31604E-02   -0.32976E-02 25584   0.386E-01    0.177E-01
DAV:   3    -0.628133866863E+03   -0.18585E-04   -0.15432E-03 29820   0.885E-02    0.104E-01
DAV:   4    -0.628133781331E+03    0.85532E-04   -0.11331E-04 14388   0.416E-02
  19 F= -.62813378E+03 E0= -.62813378E+03  d E =-.581869E-02  mag=    19.9997
       N       E                     dE             d eps       ncg     rms          rms(c)
DAV:   1    -0.628135603618E+03   -0.17368E-02   -0.18862E-01 21624   0.855E-01    0.999E-02
DAV:   2    -0.628135998584E+03   -0.39497E-03   -0.44815E-03 25416   0.140E-01    0.678E-02
DAV:   3    -0.628135996176E+03    0.24084E-05   -0.23047E-04 15060   0.345E-02
  20 F= -.62813600E+03 E0= -.62813600E+03  d E =-.221484E-02  mag=    19.9998
       N       E                     dE             d eps       ncg     rms          rms(c)
DAV:   1    -0.628136185386E+03   -0.18680E-03   -0.34533E+00 21504   0.365E+00    0.415E-01
DAV:   2    -0.628144710713E+03   -0.85253E-02   -0.92956E-02 26100   0.653E-01    0.280E-01
DAV:   3    -0.628145034246E+03   -0.32353E-03   -0.69409E-03 30828   0.165E-01    0.194E-01
DAV:   4    -0.628144756979E+03    0.27727E-03   -0.66809E-04 24468   0.681E-02    0.124E-01
DAV:   5    -0.628144614360E+03    0.14262E-03   -0.11126E-03 28572   0.863E-02    0.616E-02
DAV:   6    -0.628144586547E+03    0.27813E-04   -0.18522E-04 12780   0.452E-02
  21 F= -.62814459E+03 E0= -.62814459E+03  d E =-.859037E-02  mag=    19.9998
       N       E                     dE             d eps       ncg     rms          rms(c)
DAV:   1    -0.628143598207E+03    0.10162E-02   -0.18795E-01 21528   0.853E-01    0.183E-01
DAV:   2    -0.628143706886E+03   -0.10868E-03   -0.80689E-03 30504   0.265E-01    0.232E-01
DAV:   3    -0.628143673176E+03    0.33710E-04   -0.15386E-03 30480   0.854E-02    0.145E-01
DAV:   4    -0.628143600313E+03    0.72863E-04   -0.18691E-04 14988   0.361E-02
  22 F= -.62814360E+03 E0= -.62814360E+03  d E =0.986234E-03  mag=    19.9998
       N       E                     dE             d eps       ncg     rms          rms(c)
DAV:   1    -0.628144717970E+03   -0.10448E-02   -0.12968E+00 21504   0.225E+00    0.249E-01
DAV:   2    -0.628148194846E+03   -0.34769E-02   -0.37116E-02 26028   0.425E-01    0.208E-01
DAV:   3    -0.628148194503E+03    0.34283E-06   -0.21799E-03 30264   0.108E-01    0.110E-01
DAV:   4    -0.628148090505E+03    0.10400E-03   -0.30164E-04 19500   0.513E-02    0.899E-02
DAV:   5    -0.628148047204E+03    0.43301E-04   -0.34155E-04 19380   0.527E-02
  23 F= -.62814805E+03 E0= -.62814805E+03  d E =-.444689E-02  mag=    19.9999
       N       E                     dE             d eps       ncg     rms          rms(c)
DAV:   1    -0.628148878666E+03   -0.78816E-03   -0.27920E-02 22104   0.322E-01    0.698E-02
DAV:   2    -0.628148886791E+03   -0.81253E-05   -0.92755E-04 27168   0.106E-01
  24 F= -.62814889E+03 E0= -.62814889E+03  d E =-.839588E-03  mag=    19.9999
       N       E                     dE             d eps       ncg     rms          rms(c)
DAV:   1    -0.628150381284E+03   -0.15026E-02   -0.78897E-01 21504   0.175E+00    0.300E-01
DAV:   2    -0.628152367166E+03   -0.19859E-02   -0.23362E-02 26556   0.335E-01    0.201E-01
DAV:   3    -0.628152395652E+03   -0.28487E-04   -0.15203E-03 29196   0.938E-02    0.109E-01
DAV:   4    -0.628152313120E+03    0.82532E-04   -0.29294E-04 17952   0.472E-02
  25 F= -.62815231E+03 E0= -.62815231E+03  d E =-.342633E-02  mag=    19.9999
       N       E                     dE             d eps       ncg     rms          rms(c)
DAV:   1    -0.628151441883E+03    0.95377E-03   -0.62215E-02 21636   0.498E-01    0.115E-01
DAV:   2    -0.628151545664E+03   -0.10378E-03   -0.29309E-03 28860   0.148E-01    0.135E-01
DAV:   3    -0.628151511888E+03    0.33776E-04   -0.36769E-04 20556   0.477E-02
  26 F= -.62815151E+03 E0= -.62815151E+03  d E =0.801233E-03  mag=    19.9999
       N       E                     dE             d eps       ncg     rms          rms(c)
DAV:   1    -0.628152483101E+03   -0.93744E-03   -0.11918E-01 21600   0.679E-01    0.103E-01
DAV:   2    -0.628152835832E+03   -0.35273E-03   -0.49961E-03 28380   0.169E-01    0.132E-01
DAV:   3    -0.628152788179E+03    0.47653E-04   -0.39748E-04 21036   0.492E-02
  27 F= -.62815279E+03 E0= -.62815279E+03  d E =-.127629E-02  mag=    19.9999
       N       E                     dE             d eps       ncg     rms          rms(c)
DAV:   1    -0.628154664643E+03   -0.18288E-02   -0.56171E-01 21504   0.150E+00    0.275E-01
DAV:   2    -0.628155051231E+03   -0.38659E-03   -0.17273E-02 26508   0.298E-01    0.167E-01
DAV:   3    -0.628154934195E+03    0.11704E-03   -0.14619E-03 29304   0.116E-01    0.107E-01
DAV:   4    -0.628154883961E+03    0.50233E-04   -0.43860E-04 22488   0.507E-02
  28 F= -.62815488E+03 E0= -.62815488E+03  d E =-.209578E-02  mag=    19.9999
       N       E                     dE             d eps       ncg     rms          rms(c)
DAV:   1    -0.628156859370E+03   -0.19252E-02   -0.14066E-01 21648   0.747E-01    0.230E-01
DAV:   2    -0.628156554836E+03    0.30453E-03   -0.59945E-03 30072   0.201E-01    0.184E-01
DAV:   3    -0.628156497617E+03    0.57219E-04   -0.92056E-04 27864   0.801E-02
  29 F= -.62815650E+03 E0= -.62815650E+03  d E =-.161366E-02  mag=    19.9999
       N       E                     dE             d eps       ncg     rms          rms(c)
DAV:   1    -0.628155159287E+03    0.13955E-02   -0.25181E+00 21504   0.313E+00    0.465E-01
DAV:   2    -0.628161198362E+03   -0.60391E-02   -0.71444E-02 25788   0.578E-01    0.319E-01
DAV:   3    -0.628161228899E+03   -0.30536E-04   -0.43381E-03 30600   0.151E-01    0.181E-01
DAV:   4    -0.628160982641E+03    0.24626E-03   -0.72411E-04 24504   0.759E-02    0.114E-01
DAV:   5    -0.628160934464E+03    0.48176E-04   -0.66985E-04 24576   0.649E-02
  30 F= -.62816093E+03 E0= -.62816093E+03  d E =-.443685E-02  mag=    19.9999
       N       E                     dE             d eps       ncg     rms          rms(c)
DAV:   1    -0.628155636480E+03    0.53462E-02   -0.11952E+00 21504   0.217E+00    0.319E-01
DAV:   2    -0.628158321157E+03   -0.26847E-02   -0.35697E-02 26748   0.420E-01    0.264E-01
DAV:   3    -0.628158246962E+03    0.74194E-04   -0.21648E-03 29028   0.118E-01    0.124E-01
DAV:   4    -0.628158125854E+03    0.12111E-03   -0.24261E-04 16140   0.500E-02    0.106E-01
DAV:   5    -0.628158085059E+03    0.40795E-04   -0.22494E-04 12876   0.410E-02
  31 F= -.62815809E+03 E0= -.62815809E+03  d E =0.284941E-02  mag=    20.0000
       N       E                     dE             d eps       ncg     rms          rms(c)
DAV:   1    -0.628159630045E+03   -0.15042E-02   -0.56516E-01 21504   0.151E+00    0.287E-01
DAV:   2    -0.628159948253E+03   -0.31821E-03   -0.18533E-02 26124   0.323E-01    0.199E-01
DAV:   3    -0.628159847943E+03    0.10031E-03   -0.18360E-03 31788   0.113E-01    0.131E-01
DAV:   4    -0.628159777400E+03    0.70544E-04   -0.67976E-04 25236   0.560E-02
  32 F= -.62815978E+03 E0= -.62815978E+03  d E =-.169234E-02  mag=    20.0000
       N       E                     dE             d eps       ncg     rms          rms(c)
DAV:   1    -0.628160236966E+03   -0.38902E-03   -0.37417E-02 22056   0.369E-01    0.970E-02
DAV:   2    -0.628160264957E+03   -0.27991E-04   -0.19774E-03 26976   0.112E-01    0.108E-01
DAV:   3    -0.628160248602E+03    0.16354E-04   -0.18704E-04 14352   0.362E-02
  33 F= -.62816025E+03 E0= -.62816025E+03  d E =-.471203E-03  mag=    20.0000
       N       E                     dE             d eps       ncg     rms          rms(c)
DAV:   1    -0.628161490827E+03   -0.12259E-02   -0.44950E-01 21504   0.133E+00    0.296E-01
DAV:   2    -0.628162140660E+03   -0.64983E-03   -0.14350E-02 27804   0.275E-01    0.187E-01
DAV:   3    -0.628162126828E+03    0.13832E-04   -0.14912E-03 29676   0.981E-02    0.107E-01
DAV:   4    -0.628162066308E+03    0.60520E-04   -0.25305E-04 17376   0.419E-02
  34 F= -.62816207E+03 E0= -.62816207E+03  d E =-.181771E-02  mag=    20.0000
       N       E                     dE             d eps       ncg     rms          rms(c)
DAV:   1    -0.628162341115E+03   -0.21429E-03   -0.48796E-03 22572   0.146E-01    0.903E-02
DAV:   2    -0.628162257051E+03    0.84064E-04   -0.61651E-04 23784   0.639E-02
  35 F= -.62816226E+03 E0= -.62816226E+03  d E =-.190743E-03  mag=    20.0000
       N       E                     dE             d eps       ncg     rms          rms(c)
DAV:   1    -0.628162931535E+03   -0.59042E-03   -0.60304E-02 21600   0.483E-01    0.109E-01
DAV:   2    -0.628162948402E+03   -0.16868E-04   -0.24351E-03 27504   0.126E-01    0.100E-01
DAV:   3    -0.628162925476E+03    0.22927E-04   -0.30232E-04 18912   0.443E-02
  36 F= -.62816293E+03 E0= -.62816293E+03  d E =-.668425E-03  mag=    20.0000
       N       E                     dE             d eps       ncg     rms          rms(c)
DAV:   1    -0.628165115390E+03   -0.21670E-02   -0.37641E-01 21984   0.125E+00    0.341E-01
DAV:   2    -0.628164277555E+03    0.83784E-03   -0.15530E-02 30216   0.292E-01    0.224E-01
DAV:   3    -0.628164065200E+03    0.21235E-03   -0.20402E-03 29736   0.137E-01    0.109E-01
DAV:   4    -0.628163987334E+03    0.77866E-04   -0.47427E-04 22524   0.556E-02
  37 F= -.62816399E+03 E0= -.62816399E+03  d E =-.106186E-02  mag=    20.0000
       N       E                     dE             d eps       ncg     rms          rms(c)
DAV:   1    -0.628166093155E+03   -0.20280E-02   -0.95864E-02 21648   0.633E-01    0.262E-01
DAV:   2    -0.628165371839E+03    0.72132E-03   -0.62416E-03 31368   0.204E-01    0.196E-01
DAV:   3    -0.628165261827E+03    0.11001E-03   -0.11164E-03 29640   0.923E-02    0.926E-02
DAV:   4    -0.628165226035E+03    0.35792E-04   -0.23966E-04 17976   0.390E-02
  38 F= -.62816523E+03 E0= -.62816523E+03  d E =-.123870E-02  mag=    20.0000
       N       E                     dE             d eps       ncg     rms          rms(c)
DAV:   1    -0.628165742423E+03   -0.48060E-03   -0.21484E-01 21528   0.905E-01    0.171E-01
DAV:   2    -0.628166260402E+03   -0.51798E-03   -0.69507E-03 28704   0.195E-01    0.161E-01
DAV:   3    -0.628166231333E+03    0.29069E-04   -0.80295E-04 25764   0.641E-02
  39 F= -.62816623E+03 E0= -.62816623E+03  d E =-.100530E-02  mag=    20.0000
       N       E                     dE             d eps       ncg     rms          rms(c)
DAV:   1    -0.628166903206E+03   -0.64280E-03   -0.84312E-02 21552   0.563E-01    0.902E-02
DAV:   2    -0.628167182115E+03   -0.27891E-03   -0.39489E-03 29064   0.157E-01    0.141E-01
DAV:   3    -0.628167124987E+03    0.57127E-04   -0.29025E-04 18744   0.450E-02
  40 F= -.62816712E+03 E0= -.62816712E+03  d E =-.893654E-03  mag=    20.0000
       N       E                     dE             d eps       ncg     rms          rms(c)
DAV:   1    -0.628168251748E+03   -0.10696E-02   -0.32405E-01 21576   0.114E+00    0.263E-01
DAV:   2    -0.628168139674E+03    0.11207E-03   -0.10988E-02 26784   0.246E-01    0.171E-01
DAV:   3    -0.628168034112E+03    0.10556E-03   -0.11543E-03 28536   0.106E-01    0.111E-01
DAV:   4    -0.628167984657E+03    0.49455E-04   -0.32039E-04 20136   0.473E-02
  41 F= -.62816798E+03 E0= -.62816798E+03  d E =-.859669E-03  mag=    20.0000
       N       E                     dE             d eps       ncg     rms          rms(c)
DAV:   1    -0.628169307863E+03   -0.12738E-02   -0.78978E-02 21576   0.560E-01    0.201E-01
DAV:   2    -0.628168978412E+03    0.32945E-03   -0.42973E-03 30588   0.174E-01    0.170E-01
DAV:   3    -0.628168914146E+03    0.64266E-04   -0.67442E-04 25320   0.718E-02
  42 F= -.62816891E+03 E0= -.62816891E+03  d E =-.929490E-03  mag=    20.0000
       N       E                     dE             d eps       ncg     rms          rms(c)
DAV:   1    -0.628168820519E+03    0.15789E-03   -0.97677E-01 21504   0.195E+00    0.316E-01
DAV:   2    -0.628170935502E+03   -0.21150E-02   -0.28383E-02 26424   0.370E-01    0.214E-01
DAV:   3    -0.628170918419E+03    0.17083E-04   -0.18895E-03 30324   0.102E-01    0.125E-01
DAV:   4    -0.628170813055E+03    0.10536E-03   -0.27997E-04 17328   0.481E-02    0.773E-02
DAV:   5    -0.628170794338E+03    0.18717E-04   -0.24572E-04 13968   0.445E-02
  43 F= -.62817079E+03 E0= -.62817079E+03  d E =-.188019E-02  mag=    20.0000
       N       E                     dE             d eps       ncg     rms          rms(c)
DAV:   1    -0.628168167873E+03    0.26452E-02   -0.51303E-01 21504   0.141E+00    0.181E-01
DAV:   2    -0.628169445181E+03   -0.12773E-02   -0.14049E-02 24816   0.253E-01    0.129E-01
DAV:   3    -0.628169440783E+03    0.43978E-05   -0.60460E-04 24204   0.606E-02
  44 F= -.62816944E+03 E0= -.62816944E+03  d E =0.135356E-02  mag=    20.0000
       N       E                     dE             d eps       ncg     rms          rms(c)
DAV:   1    -0.628171193997E+03   -0.17488E-02   -0.12406E-01 21744   0.747E-01    0.385E-01
DAV:   2    -0.628169285568E+03    0.19084E-02   -0.91086E-03 30900   0.244E-01    0.248E-01
DAV:   3    -0.628169045465E+03    0.24010E-03   -0.21647E-03 31164   0.138E-01    0.141E-01
DAV:   4    -0.628168977743E+03    0.67723E-04   -0.98208E-04 28824   0.651E-02
  45 F= -.62816898E+03 E0= -.62816898E+03  d E =0.463040E-03  mag=    20.0000
       N       E                     dE             d eps       ncg     rms          rms(c)
DAV:   1    -0.628170272490E+03   -0.12270E-02   -0.17209E-01 21552   0.821E-01    0.191E-01
DAV:   2    -0.628170405118E+03   -0.13263E-03   -0.55830E-03 27312   0.180E-01    0.132E-01
DAV:   3    -0.628170408110E+03   -0.29925E-05   -0.61108E-04 24972   0.593E-02
  46 F= -.62817041E+03 E0= -.62817041E+03  d E =-.143037E-02  mag=    20.0000
       N       E                     dE             d eps       ncg     rms          rms(c)
DAV:   1    -0.628171144113E+03   -0.73900E-03   -0.21695E-01 21528   0.921E-01    0.181E-01
DAV:   2    -0.628171472262E+03   -0.32815E-03   -0.65405E-03 27600   0.182E-01    0.127E-01
DAV:   3    -0.628171433673E+03    0.38589E-04   -0.50288E-04 22980   0.594E-02
  47 F= -.62817143E+03 E0= -.62817143E+03  d E =-.102556E-02  mag=    20.0000
       N       E                     dE             d eps       ncg     rms          rms(c)
DAV:   1    -0.628171404597E+03    0.67664E-04   -0.15262E-04 12948   0.326E-02    0.431E-02
DAV:   2    -0.628171403457E+03    0.11402E-05   -0.50655E-05 12228   0.226E-02
  48 F= -.62817140E+03 E0= -.62817140E+03  d E =0.302159E-04  mag=    20.0000
       N       E                     dE             d eps       ncg     rms          rms(c)
DAV:   1    -0.628171392238E+03    0.12360E-04   -0.16026E-04 12852   0.273E-02    0.281E-02
DAV:   2    -0.628171393443E+03   -0.12056E-05   -0.17312E-05 11904   0.128E-02
  49 F= -.62817139E+03 E0= -.62817139E+03  d E =0.100137E-04  mag=    20.0000
       N       E                     dE             d eps       ncg     rms          rms(c)
DAV:   1    -0.628171126082E+03    0.26616E-03   -0.20304E-01 21504   0.859E-01    0.135E-01
DAV:   2    -0.628171670891E+03   -0.54481E-03   -0.76031E-03 26844   0.201E-01    0.175E-01
DAV:   3    -0.628171647640E+03    0.23251E-04   -0.46794E-04 21288   0.512E-02
  50 F= -.62817165E+03 E0= -.62817165E+03  d E =-.254197E-03  mag=    20.0000
       N       E                     dE             d eps       ncg     rms          rms(c)
DAV:   1    -0.628172859051E+03   -0.11882E-02   -0.16632E-01 21948   0.840E-01    0.287E-01
DAV:   2    -0.628172332368E+03    0.52668E-03   -0.10807E-02 31608   0.272E-01    0.257E-01
DAV:   3    -0.628172068787E+03    0.26358E-03   -0.15409E-03 30840   0.106E-01    0.934E-02
DAV:   4    -0.628172015769E+03    0.53017E-04   -0.16094E-04 16032   0.380E-02
  51 F= -.62817202E+03 E0= -.62817202E+03  d E =-.368129E-03  mag=    20.0000
       N       E                     dE             d eps       ncg     rms          rms(c)
DAV:   1    -0.628173043705E+03   -0.97492E-03   -0.38815E-01 21504   0.123E+00    0.323E-01
DAV:   2    -0.628172838095E+03    0.20561E-03   -0.15603E-02 28320   0.319E-01    0.268E-01
DAV:   3    -0.628172744336E+03    0.93760E-04   -0.29409E-03 30612   0.125E-01    0.169E-01
DAV:   4    -0.628172636171E+03    0.10816E-03   -0.12016E-03 30048   0.806E-02    0.125E-01
DAV:   5    -0.628172577584E+03    0.58587E-04   -0.24832E-04 18744   0.539E-02
  52 F= -.62817258E+03 E0= -.62817258E+03  d E =-.561815E-03  mag=    20.0000
       N       E                     dE             d eps       ncg     rms          rms(c)
DAV:   1    -0.628173960359E+03   -0.13242E-02   -0.13338E-01 21504   0.698E-01    0.172E-01
DAV:   2    -0.628173934673E+03    0.25686E-04   -0.58294E-03 27432   0.203E-01    0.188E-01
DAV:   3    -0.628173903056E+03    0.31617E-04   -0.98059E-04 26340   0.686E-02
  53 F= -.62817390E+03 E0= -.62817390E+03  d E =-.132547E-02  mag=    20.0000
       N       E                     dE             d eps       ncg     rms          rms(c)
DAV:   1    -0.628174812725E+03   -0.87805E-03   -0.24394E-01 21696   0.994E-01    0.265E-01
DAV:   2    -0.628174417748E+03    0.39498E-03   -0.86256E-03 28140   0.224E-01    0.149E-01
DAV:   3    -0.628174315724E+03    0.10202E-03   -0.12852E-03 29256   0.112E-01    0.100E-01
DAV:   4    -0.628174281730E+03    0.33994E-04   -0.43672E-04 22356   0.485E-02
  54 F= -.62817428E+03 E0= -.62817428E+03  d E =-.378673E-03  mag=    20.0000
       N       E                     dE             d eps       ncg     rms          rms(c)
DAV:   1    -0.628175539547E+03   -0.12238E-02   -0.54780E-02 21756   0.481E-01    0.195E-01
DAV:   2    -0.628175098548E+03    0.44100E-03   -0.32606E-03 31020   0.153E-01    0.146E-01
DAV:   3    -0.628175044767E+03    0.53780E-04   -0.59618E-04 24228   0.673E-02
  55 F= -.62817504E+03 E0= -.62817504E+03  d E =-.763038E-03  mag=    20.0000
       N       E                     dE             d eps       ncg     rms          rms(c)
DAV:   1    -0.628175433662E+03   -0.33511E-03   -0.14581E-01 21504   0.750E-01    0.156E-01
DAV:   2    -0.628175615154E+03   -0.18149E-03   -0.40764E-03 27684   0.156E-01    0.109E-01
DAV:   3    -0.628175617872E+03   -0.27184E-05   -0.62545E-04 24552   0.515E-02
  56 F= -.62817562E+03 E0= -.62817562E+03  d E =-.573105E-03  mag=    20.0000
       N       E                     dE             d eps       ncg     rms          rms(c)
DAV:   1    -0.628176417254E+03   -0.80210E-03   -0.10854E-01 21600   0.661E-01    0.147E-01
DAV:   2    -0.628176355581E+03    0.61673E-04   -0.39990E-03 27432   0.160E-01    0.112E-01
DAV:   3    -0.628176323052E+03    0.32528E-04   -0.47884E-04 22944   0.592E-02
  57 F= -.62817632E+03 E0= -.62817632E+03  d E =-.705180E-03  mag=    20.0000
       N       E                     dE             d eps       ncg     rms          rms(c)
DAV:   1    -0.628176330567E+03    0.25014E-04   -0.48125E-03 22620   0.140E-01    0.359E-02
DAV:   2    -0.628176340925E+03   -0.10358E-04   -0.22277E-04 16056   0.400E-02
  58 F= -.62817634E+03 E0= -.62817634E+03  d E =-.178731E-04  mag=    20.0000
       N       E                     dE             d eps       ncg     rms          rms(c)
DAV:   1    -0.628176577301E+03   -0.24673E-03   -0.27696E-01 21504   0.104E+00    0.125E-01
DAV:   2    -0.628177312415E+03   -0.73511E-03   -0.73593E-03 24096   0.178E-01    0.704E-02
DAV:   3    -0.628177315549E+03   -0.31341E-05   -0.21779E-04 15996   0.379E-02
  59 F= -.62817732E+03 E0= -.62817732E+03  d E =-.974624E-03  mag=    20.0000
       N       E                     dE             d eps       ncg     rms          rms(c)
DAV:   1    -0.628177095980E+03    0.21643E-03   -0.11460E-02 21720   0.213E-01    0.384E-02
DAV:   2    -0.628177119570E+03   -0.23590E-04   -0.40691E-04 16068   0.452E-02
  60 F= -.62817712E+03 E0= -.62817712E+03  d E =0.195979E-03  mag=    20.0000
       N       E                     dE             d eps       ncg     rms          rms(c)
DAV:   1    -0.628177458145E+03   -0.36217E-03   -0.17258E-01 21504   0.817E-01    0.839E-02
DAV:   2    -0.628177880963E+03   -0.42282E-03   -0.45950E-03 24684   0.147E-01    0.553E-02
DAV:   3    -0.628177879227E+03    0.17362E-05   -0.14466E-04 12924   0.325E-02
  61 F= -.62817788E+03 E0= -.62817788E+03  d E =-.759657E-03  mag=    20.0000
       N       E                     dE             d eps       ncg     rms          rms(c)
DAV:   1    -0.628177968603E+03   -0.87640E-04   -0.23766E-03 20352   0.964E-02    0.336E-02
DAV:   2    -0.628177961699E+03    0.69045E-05   -0.72828E-05 11796   0.230E-02
  62 F= -.62817796E+03 E0= -.62817796E+03  d E =-.824721E-04  mag=    20.0000
       N       E                     dE             d eps       ncg     rms          rms(c)
DAV:   1    -0.628177887383E+03    0.81220E-04   -0.31630E-01 21504   0.110E+00    0.178E-01
DAV:   2    -0.628178860186E+03   -0.97280E-03   -0.81229E-03 24648   0.189E-01    0.989E-02
DAV:   3    -0.628178909641E+03   -0.49455E-04   -0.30737E-04 17592   0.428E-02
  63 F= -.62817891E+03 E0= -.62817891E+03  d E =-.947943E-03  mag=    20.0000
       N       E                     dE             d eps       ncg     rms          rms(c)
DAV:   1    -0.628178327123E+03    0.53306E-03   -0.61376E-02 21504   0.489E-01    0.110E-01
DAV:   2    -0.628178522793E+03   -0.19567E-03   -0.22416E-03 27768   0.108E-01    0.836E-02
DAV:   3    -0.628178523212E+03   -0.41851E-06   -0.13764E-04 14520   0.370E-02
  64 F= -.62817852E+03 E0= -.62817852E+03  d E =0.386430E-03  mag=    20.0000
       N       E                     dE             d eps       ncg     rms          rms(c)
DAV:   1    -0.628178819872E+03   -0.29708E-03   -0.64818E-02 21504   0.505E-01    0.725E-02
DAV:   2    -0.628178975777E+03   -0.15591E-03   -0.21229E-03 27996   0.107E-01    0.680E-02
DAV:   3    -0.628178960159E+03    0.15617E-04   -0.11186E-04 13296   0.330E-02
  65 F= -.62817896E+03 E0= -.62817896E+03  d E =-.436948E-03  mag=    20.0000
       N       E                     dE             d eps       ncg     rms          rms(c)
DAV:   1    -0.628179241565E+03   -0.26579E-03   -0.75158E-02 21504   0.539E-01    0.642E-02
DAV:   2    -0.628179426196E+03   -0.18463E-03   -0.19245E-03 25116   0.901E-02    0.400E-02
DAV:   3    -0.628179421786E+03    0.44104E-05   -0.52982E-05 11952   0.206E-02
  66 F= -.62817942E+03 E0= -.62817942E+03  d E =-.461626E-03  mag=    20.0000
       N       E                     dE             d eps       ncg     rms          rms(c)
DAV:   1    -0.628179557830E+03   -0.13163E-03   -0.89483E-03 21720   0.188E-01    0.519E-02
DAV:   2    -0.628179553376E+03    0.44544E-05   -0.34772E-04 19620   0.520E-02
  67 F= -.62817955E+03 E0= -.62817955E+03  d E =-.131590E-03  mag=    20.0000
       N       E                     dE             d eps       ncg     rms          rms(c)
DAV:   1    -0.628179617535E+03   -0.59705E-04   -0.97110E-03 21504   0.188E-01    0.468E-02
DAV:   2    -0.628179635499E+03   -0.17965E-04   -0.41717E-04 19872   0.540E-02
  68 F= -.62817964E+03 E0= -.62817964E+03  d E =-.821237E-04  mag=    20.0000
       N       E                     dE             d eps       ncg     rms          rms(c)
DAV:   1    -0.628179915155E+03   -0.29762E-03   -0.81568E-02 21516   0.563E-01    0.662E-02
DAV:   2    -0.628180102480E+03   -0.18732E-03   -0.22423E-03 26460   0.101E-01    0.481E-02
DAV:   3    -0.628180093952E+03    0.85274E-05   -0.54955E-05 12084   0.252E-02
  69 F= -.62818009E+03 E0= -.62818009E+03  d E =-.458453E-03  mag=    20.0000
       N       E                     dE             d eps       ncg     rms          rms(c)
DAV:   1    -0.628180329285E+03   -0.22681E-03   -0.30712E-02 21528   0.345E-01    0.452E-02
DAV:   2    -0.628180386962E+03   -0.57677E-04   -0.79564E-04 21900   0.600E-02
  70 F= -.62818039E+03 E0= -.62818039E+03  d E =-.293010E-03  mag=    20.0000
       N       E                     dE             d eps       ncg     rms          rms(c)
DAV:   1    -0.628180125057E+03    0.20423E-03   -0.59002E-01 21504   0.150E+00    0.219E-01
DAV:   2    -0.628181503779E+03   -0.13787E-02   -0.15558E-02 25800   0.269E-01    0.140E-01
DAV:   3    -0.628181528839E+03   -0.25060E-04   -0.97286E-04 28032   0.662E-02
  71 F= -.62818153E+03 E0= -.62818153E+03  d E =-.114188E-02  mag=    20.0000
       N       E                     dE             d eps       ncg     rms          rms(c)
DAV:   1    -0.628181286368E+03    0.21741E-03   -0.27301E-02 21504   0.333E-01    0.780E-02
DAV:   2    -0.628181310350E+03   -0.23982E-04   -0.12668E-03 26532   0.869E-02    0.675E-02
DAV:   3    -0.628181299092E+03    0.11258E-04   -0.11084E-04 13248   0.331E-02
  72 F= -.62818130E+03 E0= -.62818130E+03  d E =0.229747E-03  mag=    20.0000
       N       E                     dE             d eps       ncg     rms          rms(c)
DAV:   1    -0.628181435547E+03   -0.12520E-03   -0.93628E-03 21528   0.191E-01    0.362E-02
DAV:   2    -0.628181458672E+03   -0.23125E-04   -0.35415E-04 19836   0.478E-02
  73 F= -.62818146E+03 E0= -.62818146E+03  d E =-.159580E-03  mag=    20.0000
       N       E                     dE             d eps       ncg     rms          rms(c)
DAV:   1    -0.628181968433E+03   -0.53289E-03   -0.13111E-01 21600   0.732E-01    0.170E-01
DAV:   2    -0.628181916037E+03    0.52396E-04   -0.50589E-03 29748   0.175E-01    0.129E-01
DAV:   3    -0.628181852761E+03    0.63276E-04   -0.56969E-04 23808   0.703E-02
  74 F= -.62818185E+03 E0= -.62818185E+03  d E =-.394089E-03  mag=    20.0000
       N       E                     dE             d eps       ncg     rms          rms(c)
DAV:   1    -0.628182063227E+03   -0.14719E-03   -0.31353E-02 21672   0.349E-01    0.564E-02
DAV:   2    -0.628182140853E+03   -0.77626E-04   -0.10581E-03 26856   0.787E-02    0.641E-02
DAV:   3    -0.628182131193E+03    0.96598E-05   -0.71774E-05 12864   0.245E-02
  75 F= -.62818213E+03 E0= -.62818213E+03  d E =-.278432E-03  mag=    20.0000
       N       E                     dE             d eps       ncg     rms          rms(c)
DAV:   1    -0.628182293699E+03   -0.15285E-03   -0.13672E-02 21672   0.234E-01    0.621E-02
DAV:   2    -0.628182290863E+03    0.28359E-05   -0.50910E-04 22068   0.531E-02
  76 F= -.62818229E+03 E0= -.62818229E+03  d E =-.159670E-03  mag=    20.0000
       N       E                     dE             d eps       ncg     rms          rms(c)
DAV:   1    -0.628182455413E+03   -0.16171E-03   -0.39763E-02 21504   0.395E-01    0.910E-02
DAV:   2    -0.628182524844E+03   -0.69432E-04   -0.16669E-03 29376   0.976E-02    0.917E-02
DAV:   3    -0.628182500322E+03    0.24522E-04   -0.11510E-04 15072   0.328E-02
  77 F= -.62818250E+03 E0= -.62818250E+03  d E =-.209459E-03  mag=    20.0000
       N       E                     dE             d eps       ncg     rms          rms(c)
DAV:   1    -0.628182652200E+03   -0.12736E-03   -0.52331E-02 21528   0.450E-01    0.747E-02
DAV:   2    -0.628182800509E+03   -0.14831E-03   -0.14671E-03 25092   0.852E-02    0.651E-02
DAV:   3    -0.628182797488E+03    0.30215E-05   -0.54285E-05 11916   0.231E-02
  78 F= -.62818280E+03 E0= -.62818280E+03  d E =-.297166E-03  mag=    20.0000
       N       E                     dE             d eps       ncg     rms          rms(c)
DAV:   1    -0.628182557090E+03    0.24342E-03   -0.45286E-02 21504   0.419E-01    0.123E-01
DAV:   2    -0.628182620907E+03   -0.63818E-04   -0.28221E-03 29856   0.145E-01    0.160E-01
DAV:   3    -0.628182566660E+03    0.54247E-04   -0.20861E-04 17424   0.422E-02
  79 F= -.62818257E+03 E0= -.62818257E+03  d E =0.230828E-03  mag=    20.0000
       N       E                     dE             d eps       ncg     rms          rms(c)
DAV:   1    -0.628182599359E+03    0.21549E-04   -0.18876E-01 21504   0.853E-01    0.162E-01
DAV:   2    -0.628183129206E+03   -0.52985E-03   -0.90259E-03 29784   0.237E-01    0.231E-01
DAV:   3    -0.628182998456E+03    0.13075E-03   -0.77560E-04 25668   0.695E-02    0.142E-01
DAV:   4    -0.628182944459E+03    0.53998E-04   -0.26615E-04 18312   0.339E-02
  80 F= -.62818294E+03 E0= -.62818294E+03  d E =-.377799E-03  mag=    20.0000
       N       E                     dE             d eps       ncg     rms          rms(c)
DAV:   1    -0.628183212201E+03   -0.21375E-03   -0.44323E-02 21504   0.400E-01    0.893E-02
DAV:   2    -0.628183363493E+03   -0.15129E-03   -0.34749E-03 29436   0.148E-01    0.142E-01
DAV:   3    -0.628183272099E+03    0.91395E-04   -0.27630E-04 19680   0.450E-02
  81 F= -.62818327E+03 E0= -.62818327E+03  d E =-.327640E-03  mag=    20.0000
       N       E                     dE             d eps       ncg     rms          rms(c)
DAV:   1    -0.628183418460E+03   -0.54967E-04   -0.58121E-02 21528   0.476E-01    0.104E-01
DAV:   2    -0.628183535069E+03   -0.11661E-03   -0.20739E-03 29448   0.107E-01    0.881E-02
DAV:   3    -0.628183504530E+03    0.30539E-04   -0.15919E-04 15396   0.404E-02
  82 F= -.62818350E+03 E0= -.62818350E+03  d E =-.232432E-03  mag=    20.0000
       N       E                     dE             d eps       ncg     rms          rms(c)
DAV:   1    -0.628183653436E+03   -0.11837E-03   -0.45448E-02 21504   0.417E-01    0.699E-02
DAV:   2    -0.628183763503E+03   -0.11007E-03   -0.19174E-03 29184   0.109E-01    0.100E-01
DAV:   3    -0.628183741620E+03    0.21883E-04   -0.13641E-04 13812   0.306E-02
  83 F= -.62818374E+03 E0= -.62818374E+03  d E =-.237090E-03  mag=    20.0000
       N       E                     dE             d eps       ncg     rms          rms(c)
DAV:   1    -0.628183851192E+03   -0.87689E-04   -0.55621E-02 21528   0.461E-01    0.781E-02
DAV:   2    -0.628184032629E+03   -0.18144E-03   -0.23902E-03 29172   0.111E-01    0.957E-02
DAV:   3    -0.628183990940E+03    0.41689E-04   -0.12418E-04 15168   0.336E-02
  84 F= -.62818399E+03 E0= -.62818399E+03  d E =-.249320E-03  mag=    20.0000
       N       E                     dE             d eps       ncg     rms          rms(c)
DAV:   1    -0.628184126891E+03   -0.94262E-04   -0.15336E-02 21588   0.247E-01    0.717E-02
DAV:   2    -0.628184119036E+03    0.78549E-05   -0.71361E-04 25008   0.683E-02
  85 F= -.62818412E+03 E0= -.62818412E+03  d E =-.128096E-03  mag=    20.0000
       N       E                     dE             d eps       ncg     rms          rms(c)
DAV:   1    -0.628184100760E+03    0.26130E-04   -0.93043E-02 21504   0.592E-01    0.102E-01
DAV:   2    -0.628184374083E+03   -0.27332E-03   -0.41176E-03 28812   0.158E-01    0.151E-01
DAV:   3    -0.628184332949E+03    0.41134E-04   -0.30735E-04 18792   0.433E-02
  86 F= -.62818433E+03 E0= -.62818433E+03  d E =-.213913E-03  mag=    20.0000
       N       E                     dE             d eps       ncg     rms          rms(c)
DAV:   1    -0.628184490819E+03   -0.11674E-03   -0.35325E-02 21528   0.361E-01    0.804E-02
DAV:   2    -0.628184656739E+03   -0.16592E-03   -0.26086E-03 30300   0.116E-01    0.102E-01
DAV:   3    -0.628184576542E+03    0.80196E-04   -0.22794E-04 18216   0.410E-02
  87 F= -.62818458E+03 E0= -.62818458E+03  d E =-.243593E-03  mag=    20.0000
       N       E                     dE             d eps       ncg     rms          rms(c)
DAV:   1    -0.628184734117E+03   -0.77379E-04   -0.61184E-02 21504   0.489E-01    0.924E-02
DAV:   2    -0.628184825788E+03   -0.91670E-04   -0.21356E-03 29100   0.112E-01    0.916E-02
DAV:   3    -0.628184797249E+03    0.28539E-04   -0.14936E-04 14484   0.375E-02
  88 F= -.62818480E+03 E0= -.62818480E+03  d E =-.220707E-03  mag=    20.0000
       N       E                     dE             d eps       ncg     rms          rms(c)
DAV:   1    -0.628184933304E+03   -0.10752E-03   -0.22847E-02 21528   0.297E-01    0.559E-02
DAV:   2    -0.628184989721E+03   -0.56417E-04   -0.10936E-03 28452   0.803E-02    0.718E-02
DAV:   3    -0.628184969489E+03    0.20232E-04   -0.80786E-05 13404   0.263E-02
  89 F= -.62818497E+03 E0= -.62818497E+03  d E =-.172240E-03  mag=    20.0000
       N       E                     dE             d eps       ncg     rms          rms(c)
DAV:   1    -0.628185094252E+03   -0.10453E-03   -0.51136E-02 21504   0.445E-01    0.543E-02
DAV:   2    -0.628185224185E+03   -0.12993E-03   -0.15214E-03 27396   0.859E-02    0.522E-02
DAV:   3    -0.628185214256E+03    0.99289E-05   -0.60453E-05 12816   0.258E-02
  90 F= -.62818521E+03 E0= -.62818521E+03  d E =-.244767E-03  mag=    20.0000
       N       E                     dE             d eps       ncg     rms          rms(c)
DAV:   1    -0.628185292118E+03   -0.67934E-04   -0.71513E-03 21360   0.167E-01    0.253E-02
DAV:   2    -0.628185303157E+03   -0.11038E-04   -0.17535E-04 14328   0.312E-02
  91 F= -.62818530E+03 E0= -.62818530E+03  d E =-.889010E-04  mag=    20.0000
       N       E                     dE             d eps       ncg     rms          rms(c)
DAV:   1    -0.628185444360E+03   -0.15224E-03   -0.37314E-02 21528   0.380E-01    0.585E-02
DAV:   2    -0.628185515540E+03   -0.71179E-04   -0.10586E-03 23760   0.700E-02    0.396E-02
DAV:   3    -0.628185510672E+03    0.48680E-05   -0.57654E-05 11940   0.228E-02
  92 F= -.62818551E+03 E0= -.62818551E+03  d E =-.207515E-03  mag=    20.0000
       N       E                     dE             d eps       ncg     rms          rms(c)
DAV:   1    -0.628185615182E+03   -0.99643E-04   -0.77728E-02 21504   0.548E-01    0.591E-02
DAV:   2    -0.628185808957E+03   -0.19378E-03   -0.20281E-03 25728   0.941E-02    0.463E-02
DAV:   3    -0.628185804279E+03    0.46788E-05   -0.60377E-05 12036   0.218E-02
  93 F= -.62818580E+03 E0= -.62818580E+03  d E =-.293607E-03  mag=    20.0000
       N       E                     dE             d eps       ncg     rms          rms(c)
DAV:   1    -0.628185840337E+03   -0.31380E-04   -0.67331E-03 21264   0.159E-01    0.387E-02
DAV:   2    -0.628185850431E+03   -0.10094E-04   -0.35414E-04 20412   0.488E-02
  94 F= -.62818585E+03 E0= -.62818585E+03  d E =-.461522E-04  mag=    20.0000
       N       E                     dE             d eps       ncg     rms          rms(c)
DAV:   1    -0.628185953248E+03   -0.11291E-03   -0.39589E-02 21528   0.391E-01    0.601E-02
DAV:   2    -0.628186061448E+03   -0.10820E-03   -0.14126E-03 28332   0.858E-02    0.586E-02
DAV:   3    -0.628186044151E+03    0.17297E-04   -0.78536E-05 14292   0.269E-02
  95 F= -.62818604E+03 E0= -.62818604E+03  d E =-.193720E-03  mag=    20.0000
       N       E                     dE             d eps       ncg     rms          rms(c)
DAV:   1    -0.628186119064E+03   -0.57616E-04   -0.87272E-03 21504   0.184E-01    0.258E-02
DAV:   2    -0.628186135856E+03   -0.16792E-04   -0.20849E-04 13536   0.334E-02
  96 F= -.62818614E+03 E0= -.62818614E+03  d E =-.917050E-04  mag=    20.0000
       N       E                     dE             d eps       ncg     rms          rms(c)
DAV:   1    -0.628186272963E+03   -0.15390E-03   -0.35024E-02 21504   0.370E-01    0.688E-02
DAV:   2    -0.628186330059E+03   -0.57096E-04   -0.12300E-03 27516   0.808E-02    0.645E-02
DAV:   3    -0.628186315391E+03    0.14669E-04   -0.83830E-05 12984   0.275E-02
  97 F= -.62818632E+03 E0= -.62818632E+03  d E =-.179534E-03  mag=    20.0000
       N       E                     dE             d eps       ncg     rms          rms(c)
DAV:   1    -0.628186397386E+03   -0.67327E-04   -0.15479E-02 21552   0.244E-01    0.319E-02
DAV:   2    -0.628186438614E+03   -0.41228E-04   -0.52236E-04 22584   0.542E-02
  98 F= -.62818644E+03 E0= -.62818644E+03  d E =-.123224E-03  mag=    20.0000
       N       E                     dE             d eps       ncg     rms          rms(c)
DAV:   1    -0.628186535275E+03   -0.13789E-03   -0.24892E-02 21552   0.310E-01    0.418E-02
DAV:   2    -0.628186596239E+03   -0.60964E-04   -0.73155E-04 23196   0.594E-02
  99 F= -.62818660E+03 E0= -.62818660E+03  d E =-.157624E-03  mag=    20.0000
       N       E                     dE             d eps       ncg     rms          rms(c)
DAV:   1    -0.628186662460E+03   -0.12719E-03   -0.10071E-02 21576   0.197E-01    0.371E-02
DAV:   2    -0.628186684499E+03   -0.22039E-04   -0.25383E-04 14496   0.394E-02
 100 F= -.62818668E+03 E0= -.62818668E+03  d E =-.882604E-04  mag=    20.0000
       N       E                     dE             d eps       ncg     rms          rms(c)
DAV:   1    -0.628186763724E+03   -0.10126E-03   -0.17916E-02 21528   0.263E-01    0.451E-02
DAV:   2    -0.628186805294E+03   -0.41571E-04   -0.46470E-04 17568   0.467E-02
 101 F= -.62818681E+03 E0= -.62818681E+03  d E =-.120796E-03  mag=    20.0000
       N       E                     dE             d eps       ncg     rms          rms(c)
DAV:   1    -0.628186868593E+03   -0.10487E-03   -0.63779E-03 21516   0.157E-01    0.293E-02
DAV:   2    -0.628186878491E+03   -0.98984E-05   -0.15775E-04 12876   0.320E-02
 102 F= -.62818688E+03 E0= -.62818688E+03  d E =-.731970E-04  mag=    20.0000
       N       E                     dE             d eps       ncg     rms          rms(c)
DAV:   1    -0.628186876177E+03   -0.75844E-05   -0.12968E-03 19896   0.698E-02    0.382E-02
DAV:   2    -0.628186871508E+03    0.46694E-05   -0.59419E-05 11772   0.246E-02
 103 F= -.62818687E+03 E0= -.62818687E+03  d E =0.698344E-05  mag=    20.0000
       N       E                     dE             d eps       ncg     rms          rms(c)
DAV:   1    -0.628186997629E+03   -0.12145E-03   -0.47023E-02 21504   0.428E-01    0.697E-02
DAV:   2    -0.628187066882E+03   -0.69253E-04   -0.16390E-03 26832   0.935E-02    0.657E-02
DAV:   3    -0.628187055096E+03    0.11786E-04   -0.10637E-04 13104   0.293E-02
 104 F= -.62818706E+03 E0= -.62818706E+03  d E =-.183588E-03  mag=    20.0000
       N       E                     dE             d eps       ncg     rms          rms(c)
DAV:   1    -0.628187106591E+03   -0.39710E-04   -0.31227E-03 20640   0.111E-01    0.265E-02
DAV:   2    -0.628187113108E+03   -0.65166E-05   -0.11445E-04 12300   0.256E-02
 105 F= -.62818711E+03 E0= -.62818711E+03  d E =-.580123E-04  mag=    20.0000
       N       E                     dE             d eps       ncg     rms          rms(c)
DAV:   1    -0.628187245677E+03   -0.13909E-03   -0.45171E-02 21504   0.422E-01    0.881E-02
DAV:   2    -0.628187255609E+03   -0.99319E-05   -0.14428E-03 27132   0.907E-02    0.589E-02
DAV:   3    -0.628187241773E+03    0.13836E-04   -0.14158E-04 14304   0.359E-02
 106 F= -.62818724E+03 E0= -.62818724E+03  d E =-.128665E-03  mag=    20.0000
       N       E                     dE             d eps       ncg     rms          rms(c)
DAV:   1    -0.628187311162E+03   -0.55553E-04   -0.50902E-03 21624   0.140E-01    0.268E-02
DAV:   2    -0.628187319876E+03   -0.87141E-05   -0.15222E-04 12312   0.323E-02
 107 F= -.62818732E+03 E0= -.62818732E+03  d E =-.781031E-04  mag=    20.0000
       N       E                     dE             d eps       ncg     rms          rms(c)
DAV:   1    -0.628187210702E+03    0.10046E-03   -0.96590E-03 21480   0.192E-01    0.333E-02
DAV:   2    -0.628187234985E+03   -0.24283E-04   -0.25657E-04 15180   0.389E-02
 108 F= -.62818723E+03 E0= -.62818723E+03  d E =0.848919E-04  mag=    20.0000
       N       E                     dE             d eps       ncg     rms          rms(c)
DAV:   1    -0.628187606097E+03   -0.39540E-03   -0.73330E-02 21816   0.553E-01    0.160E-01
DAV:   2    -0.628187401602E+03    0.20449E-03   -0.33356E-03 29604   0.139E-01    0.114E-01
DAV:   3    -0.628187356599E+03    0.45004E-04   -0.45256E-04 22308   0.628E-02
 109 F= -.62818736E+03 E0= -.62818736E+03  d E =-.121614E-03  mag=    20.0000
       N       E                     dE             d eps       ncg     rms          rms(c)
DAV:   1    -0.628187473784E+03   -0.72182E-04   -0.15364E-02 21552   0.239E-01    0.531E-02
DAV:   2    -0.628187515390E+03   -0.41606E-04   -0.91403E-04 26916   0.755E-02
 110 F= -.62818752E+03 E0= -.62818752E+03  d E =-.158792E-03  mag=    20.0000
       N       E                     dE             d eps       ncg     rms          rms(c)
DAV:   1    -0.628187595248E+03   -0.12146E-03   -0.82251E-03 21756   0.182E-01    0.793E-02
DAV:   2    -0.628187590790E+03    0.44580E-05   -0.71627E-04 26136   0.600E-02
 111 F= -.62818759E+03 E0= -.62818759E+03  d E =-.753997E-04  mag=    20.0000
       N       E                     dE             d eps       ncg     rms          rms(c)
DAV:   1    -0.628187612242E+03   -0.16993E-04   -0.23676E-02 21504   0.300E-01    0.792E-02
DAV:   2    -0.628187672962E+03   -0.60720E-04   -0.73210E-04 23928   0.616E-02
 112 F= -.62818767E+03 E0= -.62818767E+03  d E =-.821718E-04  mag=    20.0000
       N       E                     dE             d eps       ncg     rms          rms(c)
DAV:   1    -0.628187722768E+03   -0.11053E-03   -0.11161E-02 21564   0.205E-01    0.559E-02
DAV:   2    -0.628187766735E+03   -0.43967E-04   -0.38940E-04 17916   0.466E-02
 113 F= -.62818777E+03 E0= -.62818777E+03  d E =-.937732E-04  mag=    20.0000
       N       E                     dE             d eps       ncg     rms          rms(c)
DAV:   1    -0.628187804115E+03   -0.81347E-04   -0.88462E-03 21540   0.184E-01    0.465E-02
DAV:   2    -0.628187815999E+03   -0.11884E-04   -0.24034E-04 16752   0.421E-02
 114 F= -.62818782E+03 E0= -.62818782E+03  d E =-.492642E-04  mag=    20.0000
       N       E                     dE             d eps       ncg     rms          rms(c)
DAV:   1    -0.628187866003E+03   -0.61888E-04   -0.68112E-03 22176   0.177E-01    0.980E-02
DAV:   2    -0.628187755521E+03    0.11048E-03   -0.71229E-04 25728   0.694E-02    0.761E-02
DAV:   3    -0.628187734336E+03    0.21185E-04   -0.10879E-04 15084   0.349E-02
 115 F= -.62818773E+03 E0= -.62818773E+03  d E =0.816631E-04  mag=    20.0000
       N       E                     dE             d eps       ncg     rms          rms(c)
DAV:   1    -0.628187820100E+03   -0.64579E-04   -0.58605E-02 21504   0.477E-01    0.113E-01
DAV:   2    -0.628187893243E+03   -0.73143E-04   -0.25234E-03 29688   0.127E-01    0.119E-01
DAV:   3    -0.628187871305E+03    0.21938E-04   -0.31297E-04 18864   0.430E-02
 116 F= -.62818787E+03 E0= -.62818787E+03  d E =-.136968E-03  mag=    20.0000
       N       E                     dE             d eps       ncg     rms          rms(c)
DAV:   1    -0.628187974184E+03   -0.80941E-04   -0.97930E-03 21528   0.193E-01    0.656E-02
DAV:   2    -0.628188012467E+03   -0.38283E-04   -0.96309E-04 27048   0.706E-02
 117 F= -.62818801E+03 E0= -.62818801E+03  d E =-.141162E-03  mag=    20.0000
       N       E                     dE             d eps       ncg     rms          rms(c)
DAV:   1    -0.628188142987E+03   -0.16880E-03   -0.34766E-02 21504   0.376E-01    0.922E-02
DAV:   2    -0.628188130694E+03    0.12293E-04   -0.13133E-03 27552   0.927E-02    0.763E-02
DAV:   3    -0.628188112263E+03    0.18431E-04   -0.12020E-04 15036   0.379E-02
 118 F= -.62818811E+03 E0= -.62818811E+03  d E =-.997957E-04  mag=    20.0000
       N       E                     dE             d eps       ncg     rms          rms(c)
DAV:   1    -0.628188184379E+03   -0.53686E-04   -0.94114E-03 21528   0.192E-01    0.302E-02
DAV:   2    -0.628188200306E+03   -0.15926E-04   -0.24490E-04 14868   0.392E-02
 119 F= -.62818820E+03 E0= -.62818820E+03  d E =-.880429E-04  mag=    20.0000
       N       E                     dE             d eps       ncg     rms          rms(c)
DAV:   1    -0.628188284202E+03   -0.99823E-04   -0.15107E-02 21576   0.245E-01    0.598E-02
DAV:   2    -0.628188278684E+03    0.55177E-05   -0.45694E-04 18780   0.526E-02
 120 F= -.62818828E+03 E0= -.62818828E+03  d E =-.783787E-04  mag=    20.0000
