BiTiFeO                                 
           1
     5.511991    0.005671   -0.002231
     0.005682    5.511870   -0.001166
    -0.016559    0.053913   40.621320
   Bi   Ti   O    Fe
  20  12  60   4
Direct configuration=     1
   0.25163469  0.24552768  0.10456018
   0.23768441  0.27533320  0.21951799
   0.25163469  0.74552768  0.60456020
   0.23768441  0.77533323  0.71951795
   0.75163466  0.75447232  0.89543980
   0.73768437  0.72466677  0.78048205
   0.75163466  0.25447232  0.39543983
   0.73768437  0.22466679  0.28048199
   0.74778056  0.75425547  0.10488448
   0.73468602  0.72707325  0.21940872
   0.74778056  0.25425550  0.60488451
   0.73468602  0.22707324  0.71940875
   0.24778058  0.24574450  0.89511549
   0.23468603  0.27292678  0.78059125
   0.24778058  0.74574453  0.39511553
   0.23468603  0.77292675  0.28059128
   0.24248166  0.24192810  0.00106251
   0.24248166  0.74192810  0.50106251
   0.74248165  0.75807190  0.99893749
   0.74248165  0.25807190  0.49893743
   0.79556835  0.74996662  0.65309596
   0.79556835  0.24996664  0.15309598
   0.79018825  0.75150693  0.45036468
   0.79018825  0.25150693  0.95036465
   0.29018825  0.24849309  0.54963535
   0.29474810  0.25028604  0.65248573
   0.29474810  0.75028604  0.15248573
   0.29018825  0.74849307  0.04963534
   0.29145211  0.24496144  0.45021892
   0.29145211  0.74496144  0.95021892
   0.79145211  0.75503856  0.54978108
   0.79145211  0.25503856  0.04978108
   0.60797232  0.55333757  0.05623510
   0.32074291  0.32244712  0.40269166
   0.52769464  0.47232899  0.13806446
   0.29197162  0.18621907  0.30358261
   0.50278539  0.49499974  0.25136027
   0.00366211  0.96418035  0.03809405
   0.10417966  0.05360783  0.15095773
   0.60797232  0.05333758  0.55623508
   0.32074291  0.82244712  0.90269166
   0.52769464  0.97232902  0.63806444
   0.29197162  0.68621904  0.80358261
   0.50278539  0.99499977  0.75136030
   0.00366211  0.46418038  0.53809404
   0.10417966  0.55360788  0.65095776
   0.10797235  0.44666240  0.94376492
   0.82074291  0.67755288  0.59730834
   0.02769462  0.52767098  0.86193556
   0.79197168  0.81378096  0.69641739
   0.00278540  0.50500023  0.74863970
   0.50366211  0.03581963  0.96190596
   0.60417968  0.94639212  0.84904224
   0.10797235  0.94666243  0.44376490
   0.82074291  0.17755288  0.09730835
   0.02769462  0.02767100  0.36193556
   0.79197168  0.31378096  0.19641739
   0.00278540  0.00500026  0.24863972
   0.50366211  0.53581965  0.46190593
   0.60417968  0.44639218  0.34904227
   0.10746492  0.42657372  0.05429961
   0.82924741  0.67528647  0.40033671
   0.02685624  0.52419931  0.13827106
   0.79467112  0.81472349  0.30391791
   0.00275614  0.50483209  0.25127208
   0.50846183  0.05460011  0.03958693
   0.60779965  0.94555801  0.15167758
   0.10746492  0.92657369  0.55429965
   0.82924741  0.17528649  0.90033674
   0.02685624  0.02419928  0.63827103
   0.79467112  0.31472352  0.80391788
   0.00275614  0.00483209  0.75127208
   0.50846183  0.55460012  0.53958690
   0.60779965  0.44555801  0.65167761
   0.60746491  0.57342631  0.94570035
   0.32924739  0.32471353  0.59966326
   0.52685618  0.47580072  0.86172897
   0.29467115  0.18527651  0.69608212
   0.50275618  0.49516791  0.74872792
   0.00846184  0.94539988  0.96041310
   0.10779966  0.05444197  0.84832239
   0.60746491  0.07342626  0.44570041
   0.32924739  0.82471353  0.09966327
   0.52685618  0.97580069  0.36172894
   0.29467115  0.68527651  0.19608207
   0.50275618  0.99516791  0.24872789
   0.00846184  0.44539991  0.46041310
   0.10779966  0.55444199  0.34832245
   0.31750971  0.15670252  0.49889919
   0.31750971  0.65670258  0.99889922
   0.81750971  0.84329742  0.50110078
   0.81750971  0.34329748  0.00110078
   0.29556838  0.25003338  0.34690401
   0.29556838  0.75003338  0.84690404
   0.79474807  0.74971396  0.34751427
   0.79474807  0.24971396  0.84751427
BiTiFeO                                 
           1
     5.511609    0.005601    0.002792
     0.005612    5.509932   -0.001995
     0.020569    0.047798   40.887161
   Bi   Ti   O    Fe
  20  12  60   4
Direct configuration=     2
   0.25242256  0.24526963  0.10501560
   0.23809043  0.27446272  0.21997612
   0.25242256  0.74526963  0.60501561
   0.23809043  0.77446275  0.71997608
   0.75202283  0.75171719  0.89250072
   0.73645545  0.72421328  0.78142408
   0.75202283  0.25171719  0.39250075
   0.73645545  0.22421329  0.28142402
   0.74757507  0.75391290  0.10563163
   0.73513157  0.72797450  0.21983750
   0.74757507  0.25391293  0.60563165
   0.73513157  0.22797448  0.71983753
   0.25062727  0.24794173  0.89227685
   0.23418423  0.27439340  0.78155835
   0.25062727  0.74794176  0.39227688
   0.23418423  0.77439337  0.28155838
   0.24420629  0.24241172  0.00191087
   0.24420629  0.74241172  0.50191087
   0.74309889  0.75920077  0.99943089
   0.74309889  0.25920077  0.49943083
   0.79555789  0.75038716  0.65376586
   0.79555789  0.25038717  0.15376587
   0.79126616  0.75335301  0.44902294
   0.79126616  0.25335301  0.94902291
   0.29046980  0.24861344  0.55001522
   0.29480790  0.24996321  0.65306008
   0.29480790  0.74996321  0.15306008
   0.29046980  0.74861343  0.05001521
   0.29094687  0.24499088  0.44894210
   0.29094687  0.74499088  0.94894210
   0.79247739  0.75460791  0.55084393
   0.79247739  0.25460791  0.05084392
   0.60905895  0.55348459  0.05568771
   0.31994833  0.32034988  0.40423971
   0.52769135  0.47229360  0.13785134
   0.29299775  0.18568205  0.30376873
   0.50257592  0.49514535  0.25105988
   0.00075190  0.96363652  0.03779670
   0.10455310  0.05403550  0.15073821
   0.60905895  0.05348459  0.55568768
   0.31994833  0.82034988  0.90423971
   0.52769135  0.97229363  0.63785133
   0.29299775  0.68568202  0.80376873
   0.50257592  0.99514538  0.75105991
   0.00075190  0.46363655  0.53779669
   0.10455310  0.55403555  0.65073824
   0.10067472  0.44318609  0.94464178
   0.82001936  0.67824516  0.59665127
   0.02776277  0.52815701  0.86269603
   0.79162982  0.81271741  0.69593125
   0.00251920  0.50467981  0.74828144
   0.51025351  0.04148415  0.96176691
   0.60537719  0.94584160  0.84974080
   0.10067472  0.94318612  0.44464175
   0.82001936  0.17824516  0.09665129
   0.02776277  0.02815703  0.36269603
   0.79162982  0.31271741  0.19593125
   0.00251920  0.00467984  0.24828145
   0.51025351  0.54148417  0.46176688
   0.60537719  0.44584166  0.34974083
   0.10319382  0.42500181  0.05385335
   0.82528707  0.67903723  0.40287755
   0.02633337  0.52467395  0.13804677
   0.79564222  0.81407601  0.30433857
   0.00228998  0.50468550  0.25096044
   0.51099992  0.05491212  0.03919820
   0.60839872  0.94480344  0.15140844
   0.10319382  0.92500178  0.55385339
   0.82528707  0.17903725  0.90287758
   0.02633337  0.02467392  0.63804674
   0.79564222  0.31407604  0.80433854
   0.00228998  0.00468551  0.75096044
   0.51099992  0.55491213  0.53919817
   0.60839872  0.44480344  0.65140847
   0.61153820  0.56178623  0.94639530
   0.32925549  0.32464715  0.59938543
   0.52742134  0.47535891  0.86247504
   0.29432928  0.18630915  0.69558557
   0.50278812  0.49508271  0.74835275
   0.00275168  0.95326740  0.96054544
   0.10884908  0.05499991  0.84898902
   0.61153820  0.06178619  0.44639536
   0.32925549  0.82464715  0.09938544
   0.52742134  0.97535888  0.36247501
   0.29432928  0.68630915  0.19558552
   0.50278812  0.99508271  0.24835272
   0.00275168  0.45326743  0.46054544
   0.10884908  0.55499993  0.34898908
   0.31851734  0.15721189  0.49881706
   0.31851734  0.65721195  0.99881709
   0.81730122  0.84144456  0.49988358
   0.81730122  0.34144462 -0.00011642
   0.29560118  0.24995645  0.34626494
   0.29560118  0.74995645  0.84626497
   0.79434718  0.75039322  0.34655799
   0.79434718  0.25039322  0.84655799
BiTiFeO                                 
           1
     5.496275    0.003732    0.009161
     0.003745    5.491864   -0.003050
     0.067761    0.039758   40.877907
   Bi   Ti   O    Fe
  20  12  60   4
Direct configuration=     3
   0.25273787  0.24550432  0.10510503
   0.23860020  0.27356734  0.22020964
   0.25273787  0.74550432  0.60510504
   0.23860020  0.77356737  0.72020960
   0.75312876  0.75086582  0.89235134
   0.73564377  0.72339816  0.78169798
   0.75312876  0.25086582  0.39235137
   0.73564377  0.22339817  0.28169792
   0.74826869  0.75358629  0.10565199
   0.73579557  0.72881181  0.22006116
   0.74826869  0.25358631  0.60565201
   0.73579557  0.22881179  0.72006119
   0.25147289  0.24893330  0.89210898
   0.23347309  0.27544886  0.78184001
   0.25147289  0.74893333  0.39210901
   0.23347309  0.77544883  0.28184004
   0.24402563  0.24308899  0.00140182
   0.24402563  0.74308899  0.50140182
   0.74316186  0.75883724  0.99901730
   0.74316186  0.25883724  0.49901724
   0.79583416  0.74964898  0.65326045
   0.79583416  0.24964899  0.15326046
   0.79188753  0.75317442  0.44899269
   0.79188753  0.25317442  0.94899266
   0.29015341  0.24849168  0.54974150
   0.29472438  0.25042167  0.65270690
   0.29472438  0.75042167  0.15270690
   0.29015341  0.74849167  0.04974149
   0.29022281  0.24475780  0.44910036
   0.29022281  0.74475780  0.94910036
   0.79122309  0.75420456  0.55016421
   0.79122309  0.25420456  0.05016421
   0.60723028  0.55475085  0.05573135
   0.31946621  0.32005066  0.40416919
   0.52755000  0.47227680  0.13782721
   0.29345502  0.18433033  0.30315243
   0.50260951  0.49496974  0.25100526
   0.00317550  0.96193890  0.03805199
   0.10441601  0.05417814  0.15069334
   0.60723028  0.05475085  0.55573133
   0.31946621  0.82005066  0.90416919
   0.52755000  0.97227683  0.63782720
   0.29345502  0.68433030  0.80315243
   0.50260951  0.99496977  0.75100529
   0.00317550  0.46193893  0.53805198
   0.10441601  0.55417819  0.65069337
   0.10133405  0.44393107  0.94482434
   0.82002001  0.67791195  0.59698905
   0.02810742  0.52801781  0.86265619
   0.79120932  0.81300346  0.69640280
   0.00248899  0.50441019  0.74822368
   0.51024920  0.04126049  0.96179657
   0.60505571  0.94658320  0.84970166
   0.10133405  0.94393110  0.44482431
   0.82002001  0.17791195  0.09698906
   0.02810742  0.02801783  0.36265619
   0.79120932  0.31300346  0.19640280
   0.00248899  0.00441022  0.24822370
   0.51024920  0.54126052  0.46179654
   0.60505571  0.44658326  0.34970169
   0.10527554  0.42798864  0.05395207
   0.82387238  0.67970266  0.40315744
   0.02632637  0.52447057  0.13803249
   0.79610543  0.81547984  0.30360379
   0.00219171  0.50490370  0.25091807
   0.51006071  0.05302857  0.03942264
   0.60817986  0.94494000  0.15140370
   0.10527554  0.92798861  0.55395211
   0.82387238  0.17970267  0.90315746
   0.02632637  0.02447054  0.63803246
   0.79610543  0.31547987  0.80360376
   0.00219171  0.00490371  0.75091807
   0.51006071  0.55302858  0.53942262
   0.60817986  0.44494000  0.65140373
   0.61045758  0.56079155  0.94643181
   0.32873954  0.32431189  0.59914998
   0.52755384  0.47540127  0.86245103
   0.29397591  0.18609283  0.69595720
   0.50283811  0.49532805  0.74830643
   0.00361564  0.95370000  0.96067742
   0.10822404  0.05464209  0.84899176
   0.61045758  0.06079150  0.44643187
   0.32873954  0.82431189  0.09914999
   0.52755384  0.97540124  0.36245100
   0.29397591  0.68609283  0.19595716
   0.50283811  0.99532805  0.24830640
   0.00361564  0.45370003  0.46067742
   0.10822404  0.55464211  0.34899182
   0.31844717  0.15816823  0.49924283
   0.31844717  0.65816829  0.99924286
   0.81785429  0.84067470  0.50003581
   0.81785429  0.34067476  0.00003581
   0.29538581  0.25036507  0.34659252
   0.29538581  0.75036507  0.84659255
   0.79417481  0.74965535  0.34703651
   0.79417481  0.24965535  0.84703651
BiTiFeO                                 
           1
     5.497838    0.002983    0.008596
     0.002997    5.493101   -0.003019
     0.063510    0.040006   40.895051
   Bi   Ti   O    Fe
  20  12  60   4
Direct configuration=     4
   0.25282068  0.24624011  0.10543859
   0.23949789  0.27229372  0.22074315
   0.25282068  0.74624011  0.60543860
   0.23949789  0.77229375  0.72074311
   0.75448242  0.74926706  0.89172469
   0.73368404  0.72127113  0.78197378
   0.75448242  0.24926706  0.39172472
   0.73368404  0.22127114  0.28197372
   0.74961643  0.75297707  0.10584305
   0.73718890  0.72972008  0.22058798
   0.74961643  0.25297710  0.60584308
   0.73718890  0.22972006  0.72058801
   0.25324349  0.25062377  0.89145126
   0.23137312  0.27780306  0.78212480
   0.25324349  0.75062380  0.39145129
   0.23137312  0.77780303  0.28212483
   0.24392761  0.24399610  0.00049380
   0.24392761  0.74399610  0.50049380
   0.74323562  0.75827176  0.99826656
   0.74323562  0.25827176  0.49826650
   0.79581593  0.75073403  0.65407240
   0.79581593  0.25073405  0.15407241
   0.79285077  0.75275985  0.44854845
   0.79285077  0.25275985  0.94854842
   0.29044139  0.24773693  0.54963105
   0.29474476  0.24910070  0.65360231
   0.29474476  0.74910070  0.15360231
   0.29044139  0.74773691  0.04963104
   0.29011725  0.24512917  0.44874523
   0.29011725  0.74512917  0.94874523
   0.79039083  0.75441901  0.54969507
   0.79039083  0.25441901  0.04969506
   0.60465875  0.55537590  0.05567010
   0.31816496  0.31869613  0.40461238
   0.52695458  0.47237387  0.13764118
   0.29464334  0.18284971  0.30284753
   0.50266796  0.49467653  0.25095427
   0.00685375  0.95982570  0.03840449
   0.10475160  0.05444118  0.15038875
   0.60465875  0.05537591  0.55567008
   0.31816496  0.81869613  0.90461238
   0.52695458  0.97237390  0.63764116
   0.29464334  0.68284968  0.80284753
   0.50266796  0.99467656  0.75095430
   0.00685375  0.45982573  0.53840448
   0.10475160  0.55444123  0.65038878
   0.10214952  0.44500817  0.94539040
   0.81998573  0.67826603  0.59690380
   0.02853662  0.52759716  0.86270820
   0.79061311  0.81125611  0.69570792
   0.00266262  0.50392690  0.74822157
   0.51031075  0.04058670  0.96198174
   0.60484801  0.94728326  0.84991413
   0.10214952  0.94500820  0.44539037
   0.81998573  0.17826603  0.09690382
   0.02853662  0.02759718  0.36270820
   0.79061311  0.31125611  0.19570792
   0.00266262  0.00392693  0.24822158
   0.51031075  0.54058672  0.46198171
   0.60484801  0.44728332  0.34991416
   0.10770695  0.43334520  0.05399961
   0.82099641  0.68145338  0.40401351
   0.02646637  0.52447883  0.13784483
   0.79729364  0.81696320  0.30322912
   0.00224264  0.50542189  0.25089579
   0.50797622  0.04953770  0.03970686
   0.60766472  0.94454578  0.15112238
   0.10770695  0.93334517  0.55399965
   0.82099641  0.18145339  0.90401354
   0.02646637  0.02447880  0.63784480
   0.79729364  0.31696323  0.80322909
   0.00224264  0.00542189  0.75089579
   0.50797622  0.54953771  0.53970683
   0.60766472  0.44454578  0.65112241
   0.60842334  0.55892371  0.94673036
   0.32742397  0.32309916  0.59829233
   0.52790990  0.47542714  0.86255484
   0.29323823  0.18777611  0.69531303
   0.50291216  0.49588273  0.74832379
   0.00513923  0.95485917  0.96104000
   0.10724030  0.05457318  0.84928443
   0.60842334  0.05892366  0.44673042
   0.32742397  0.82309916  0.09829234
   0.52790990  0.97542711  0.36255481
   0.29323823  0.68777611  0.19531298
   0.50291216  0.99588273  0.24832376
   0.00513923  0.45485920  0.46104000
   0.10724030  0.55457320  0.34928449
   0.31826275  0.16028742  0.50003710
   0.31826275  0.66028748  1.00003713
   0.81884443  0.83900762  0.50038175
   0.81884443  0.33900768  0.00038175
   0.29504009  0.25002867  0.34624862
   0.29504009  0.75002867  0.84624865
   0.79398589  0.74988204  0.34669293
   0.79398589  0.24988204  0.84669293
BiTiFeO                                 
           1
     5.516411    0.001019    0.006243
     0.001036    5.510703   -0.002755
     0.045758    0.042243   41.195135
   Bi   Ti   O    Fe
  20  12  60   4
Direct configuration=     5
   0.25278301  0.24643521  0.10556792
   0.23988550  0.27192354  0.22091836
   0.25278301  0.74643521  0.60556793
   0.23988550  0.77192357  0.72091832
   0.75477302  0.74886508  0.89146760
   0.73314669  0.72081152  0.78210597
   0.75477302  0.24886508  0.39146763
   0.73314669  0.22081153  0.28210591
   0.74998554  0.75293514  0.10594730
   0.73769944  0.72996054  0.22076685
   0.74998554  0.25293516  0.60594732
   0.73769944  0.22996053  0.72076688
   0.25384322  0.25100716  0.89119153
   0.23078452  0.27826388  0.78226065
   0.25384322  0.75100719  0.39119156
   0.23078452  0.77826385  0.28226068
   0.24401860  0.24398030  0.00022428
   0.24401860  0.74398030  0.50022428
   0.74340411  0.75816122  0.99803570
   0.74340411  0.25816122  0.49803564
   0.79577502  0.75072739  0.65409873
   0.79577502  0.25072740  0.15409875
   0.79296095  0.75265555  0.44839916
   0.79296095  0.25265555  0.94839913
   0.29064043  0.24746260  0.54969570
   0.29484906  0.24905086  0.65366273
   0.29484906  0.74905086  0.15366273
   0.29064043  0.74746258  0.04969569
   0.29044216  0.24545244  0.44854236
   0.29044216  0.74545244  0.94854236
   0.79042632  0.75449984  0.54977493
   0.79042632  0.25449984  0.04977492
   0.60396014  0.55536231  0.05560823
   0.31770539  0.31825110  0.40479088
   0.52674952  0.47243978  0.13759697
   0.29497903  0.18255676  0.30280514
   0.50262963  0.49465164  0.25089777
   0.00781466  0.95931923  0.03850253
   0.10492122  0.05446067  0.15029689
   0.60396014  0.05536232  0.55560821
   0.31770539  0.81825110  0.90479088
   0.52674952  0.97243981  0.63759695
   0.29497903  0.68255674  0.80280514
   0.50262963  0.99465167  0.75089780
   0.00781466  0.45931926  0.53850252
   0.10492122  0.55446072  0.65029692
   0.10220412  0.44497448  0.94560570
   0.81995668  0.67860804  0.59670195
   0.02851105  0.52751486  0.86277428
   0.79037003  0.81098784  0.69569451
   0.00270180  0.50388650  0.74817786
   0.51026897  0.04031385  0.96208521
   0.60494591  0.94713996  0.85003625
   0.10220412  0.94497451  0.44560567
   0.81995668  0.17860804  0.09670197
   0.02851105  0.02751488  0.36277428
   0.79037003  0.31098784  0.19569451
   0.00270180  0.00388653  0.24817787
   0.51026897  0.54031388  0.46208518
   0.60494591  0.44714002  0.35003628
   0.10806530  0.43512734  0.05399764
   0.82027339  0.68191895  0.40421638
   0.02647128  0.52459090  0.13779049
   0.79761844  0.81727425  0.30318887
   0.00221915  0.50549991  0.25084394
   0.50737320  0.04840683  0.03975120
   0.60750383  0.94430965  0.15101182
   0.10806530  0.93512731  0.55399769
   0.82027339  0.18191897  0.90421641
   0.02647128  0.02459087  0.63779046
   0.79761844  0.31727428  0.80318884
   0.00221915  0.00549992  0.75084394
   0.50737320  0.54840684  0.53975117
   0.60750383  0.44430965  0.65101185
   0.60801426  0.55874007  0.94689460
   0.32679882  0.32252954  0.59792629
   0.52796887  0.47539113  0.86263769
   0.29292316  0.18804683  0.69531941
   0.50290866  0.49596131  0.74828178
   0.00541220  0.95525801  0.96117126
   0.10717363  0.05478438  0.84942407
   0.60801426  0.05874003  0.44689466
   0.32679882  0.82252954  0.09792631
   0.52796887  0.97539110  0.36263766
   0.29292316  0.68804683  0.19531937
   0.50290866  0.99596131  0.24828175
   0.00541220  0.45525804  0.46117126
   0.10717363  0.55478440  0.34942413
   0.31823983  0.16098139  0.50029549
   0.31823983  0.66098145  1.00029552
   0.81898553  0.83851496  0.50051335
   0.81898553  0.33851502  0.00051335
   0.29494822  0.24993815  0.34605132
   0.29494822  0.74993815  0.84605135
   0.79396621  0.75006694  0.34645040
   0.79396621  0.25006694  0.84645040
BiTiFeO                                 
           1
     5.494234    0.000521    0.002555
     0.000542    5.487866   -0.004323
     0.018038    0.030353   41.171698
   Bi   Ti   O    Fe
  20  12  60   4
Direct configuration=     6
   0.25283771  0.24697456  0.10602211
   0.24133972  0.27038092  0.22152732
   0.25283771  0.74697456  0.60602213
   0.24133972  0.77038095  0.72152727
   0.75599281  0.74750645  0.89062248
   0.73158315  0.71958679  0.78275718
   0.75599281  0.24750645  0.39062251
   0.73158315  0.21958681  0.28275712
   0.75127321  0.75290552  0.10633336
   0.73946225  0.73116158  0.22138712
   0.75127321  0.25290555  0.60633339
   0.73946225  0.23116156  0.72138715
   0.25589610  0.25233459  0.89033976
   0.22917864  0.27953936  0.78292754
   0.25589610  0.75233462  0.39033979
   0.22917864  0.77953933  0.28292757
   0.24434246  0.24382153 -0.00077338
   0.24434246  0.74382153  0.49922662
   0.74416775  0.75781905  0.99716670
   0.74416775  0.25781905  0.49716664
   0.79586993  0.74923278  0.65319899
   0.79586993  0.24923279  0.15319901
   0.79334025  0.75232560  0.44794414
   0.79334025  0.25232560  0.94794411
   0.29099985  0.24662533  0.54983941
   0.29521264  0.25021620  0.65299733
   0.29521264  0.75021620  0.15299733
   0.29099985  0.74662531  0.04983940
   0.29134654  0.24643023  0.44793609
   0.29134654  0.74643023  0.94793609
   0.79007106  0.75437485  0.54989090
   0.79007106  0.25437485  0.04989090
   0.60096336  0.55613394  0.05541145
   0.31622512  0.31692768  0.40526436
   0.52612337  0.47264014  0.13749979
   0.29594232  0.18118132  0.30230524
   0.50242927  0.49461806  0.25060826
   0.01162182  0.95699758  0.03889954
   0.10535675  0.05454604  0.15006870
   0.60096336  0.05613394  0.55541142
   0.31622512  0.81692768  0.90526436
   0.52612337  0.97264017  0.63749978
   0.29594232  0.68118129  0.80230524
   0.50242927  0.99461809  0.75060829
   0.01162182  0.45699761  0.53889953
   0.10535675  0.55454609  0.65006873
   0.10240283  0.44473163  0.94629731
   0.81984293  0.67955626  0.59615888
   0.02833300  0.52735308  0.86301600
   0.78939589  0.81134659  0.69654705
   0.00272838  0.50384243  0.74790402
   0.50995852  0.03943711  0.96245021
   0.60533332  0.94656374  0.85039840
   0.10240283  0.94473166  0.44629728
   0.81984293  0.17955626  0.09615889
   0.02833300  0.02735310  0.36301600
   0.78939589  0.31134659  0.19654705
   0.00272838  0.00384246  0.24790404
   0.50995852  0.53943713  0.46245018
   0.60533332  0.44656380  0.35039843
   0.10990051  0.44179409  0.05402491
   0.81798714  0.68334539  0.40479529
   0.02637928  0.52490560  0.13766041
   0.79854301  0.81875750  0.30265095
   0.00197525  0.50564044  0.25056572
   0.50524019  0.04419633  0.03994254
   0.60702012  0.94360705  0.15072642
   0.10990051  0.94179406  0.55402495
   0.81798714  0.18334541  0.90479532
   0.02637928  0.02490557  0.63766038
   0.79854301  0.31875753  0.80265092
   0.00197525  0.00564045  0.75056572
   0.50524019  0.54419633  0.53994252
   0.60702012  0.44360705  0.65072645
   0.60674581  0.55842117  0.94743511
   0.32459755  0.32059980  0.59671084
   0.52803341  0.47523566  0.86292918
   0.29180998  0.18781701  0.69612260
   0.50288700  0.49609868  0.74801280
   0.00614745  0.95646662  0.96161836
   0.10712557  0.05555871  0.84984004
   0.60674581  0.05842112  0.44743517
   0.32459755  0.82059980  0.09671085
   0.52803341  0.97523563  0.36292915
   0.29180998  0.68781701  0.19612256
   0.50288700  0.99609868  0.24801277
   0.00614745  0.45646665  0.46161836
   0.10712557  0.55555874  0.34984010
   0.31816506  0.16329013  0.50125864
   0.31816506  0.66329019  1.00125867
   0.81936197  0.83695707  0.50098505
   0.81936197  0.33695713  0.00098505
   0.29463444  0.25011229  0.34572132
   0.29463444  0.75011229  0.84572135
   0.79387498  0.75008536  0.34605346
   0.79387498  0.25008536  0.84605346
BiTiFeO                                 
           1
     5.490406    0.000275    0.002773
     0.000296    5.484082   -0.003758
     0.019655    0.034631   41.250100
   Bi   Ti   O    Fe
  20  12  60   4
Direct configuration=     7
   0.25286454  0.24723727  0.10550267
   0.24206333  0.27101246  0.22142219
   0.25286454  0.74723727  0.60550268
   0.24206333  0.77101249  0.72142214
   0.75693446  0.74711476  0.89084267
   0.72982655  0.71950826  0.78226603
   0.75693446  0.24711476  0.39084270
   0.72982655  0.21950827  0.28226597
   0.75110589  0.75253982  0.10579492
   0.74043907  0.73021853  0.22129287
   0.75110589  0.25253985  0.60579494
   0.74043907  0.23021851  0.72129290
   0.25682600  0.25282776  0.89057201
   0.22749333  0.27970362  0.78245076
   0.25682600  0.75282779  0.39057204
   0.22749333  0.77970359  0.28245079
   0.24410733  0.24452698 -0.00074562
   0.24410733  0.74452698  0.49925438
   0.74379341  0.75682301  0.99736385
   0.74379341  0.25682301  0.49736379
   0.79533970  0.75152038  0.65434093
   0.79533970  0.25152040  0.15434095
   0.79307648  0.75247326  0.44900337
   0.79307648  0.25247326  0.94900334
   0.29146276  0.24718295  0.54943209
   0.29511431  0.24798170  0.65396837
   0.29511431  0.74798170  0.15396837
   0.29146276  0.74718294  0.04943208
   0.29090252  0.24610554  0.44923114
   0.29090252  0.74610554  0.94923114
   0.78969564  0.75427800  0.54938300
   0.78969564  0.25427800  0.04938299
   0.60287843  0.55388897  0.05549931
   0.31557919  0.31768683  0.40448457
   0.52639528  0.47273455  0.13755600
   0.29684527  0.18096404  0.30240031
   0.50279642  0.49426699  0.25101971
   0.01094530  0.95827466  0.03906863
   0.10479250  0.05387155  0.14994187
   0.60287843  0.05388898  0.55549929
   0.31557919  0.81768683  0.90448457
   0.52639528  0.97273458  0.63755599
   0.29684527  0.68096401  0.80240031
   0.50279642  0.99426702  0.75101974
   0.01094530  0.45827469  0.53906862
   0.10479250  0.55387160  0.64994190
   0.10288683  0.44462817  0.94654562
   0.82001511  0.67964954  0.59637100
   0.02912338  0.52704619  0.86279267
   0.78905042  0.80919379  0.69541123
   0.00281461  0.50336447  0.74840694
   0.51095342  0.03880997  0.96228562
   0.60428216  0.94771536  0.85035467
   0.10288683  0.94462820  0.44654559
   0.82001511  0.17964954  0.09637102
   0.02912338  0.02704621  0.36279267
   0.78905042  0.30919379  0.19541123
   0.00281461  0.00336450  0.24840695
   0.51095342  0.53880999  0.46228559
   0.60428216  0.44771542  0.35035470
   0.10769977  0.44186755  0.05429468
   0.81659180  0.68297698  0.40426682
   0.02646341  0.52479099  0.13769293
   0.79935517  0.81914116  0.30266233
   0.00235179  0.50607841  0.25097517
   0.50728271  0.04495504  0.03996122
   0.60640985  0.94433541  0.15051658
   0.10769977  0.94186752  0.55429473
   0.81659180  0.18297700  0.90426685
   0.02646341  0.02479096  0.63769290
   0.79935517  0.31914119  0.80266230
   0.00235179  0.00607842  0.75097517
   0.50728271  0.54495504  0.53996120
   0.60640985  0.44433541  0.65051661
   0.60617196  0.55789470  0.94752832
   0.32359435  0.32069427  0.59686486
   0.52879278  0.47543882  0.86271737
   0.29115676  0.18977247  0.69520456
   0.50297341  0.49659703  0.74850037
   0.00801575  0.95791415  0.96150378
   0.10598597  0.05433262  0.84983885
   0.60617196  0.05789466  0.44752838
   0.32359435  0.82069427  0.09686488
   0.52879278  0.97543879  0.36271734
   0.29115676  0.68977247  0.19520452
   0.50297341  0.99659703  0.24850034
   0.00801575  0.45791418  0.46150378
   0.10598597  0.55433264  0.34983890
   0.31894827  0.16412602  0.50114020
   0.31894827  0.66412608  1.00114023
   0.81984480  0.83560773  0.50101443
   0.81984480  0.33560779  0.00101443
   0.29419802  0.25013563  0.34535612
   0.29419802  0.75013563  0.84535615
   0.79375948  0.75019148  0.34570192
   0.79375948  0.25019148  0.84570192
BiTiFeO                                 
           1
     5.496522    0.000010    0.004898
     0.000030    5.490910   -0.003098
     0.035623    0.039697   41.328678
   Bi   Ti   O    Fe
  20  12  60   4
Direct configuration=     8
   0.25242552  0.24704529  0.10539456
   0.24261418  0.27099306  0.22150870
   0.25242552  0.74704529  0.60539458
   0.24261418  0.77099309  0.72150866
   0.75723307  0.74737074  0.89083474
   0.72882010  0.71962114  0.78228194
   0.75723307  0.24737074  0.39083477
   0.72882010  0.21962115  0.28228188
   0.75109088  0.75275383  0.10567022
   0.74108462  0.73008833  0.22139030
   0.75109088  0.25275386  0.60567024
   0.74108462  0.23008831  0.72139033
   0.25742246  0.25261413  0.89058263
   0.22655259  0.27969196  0.78246936
   0.25742246  0.75261416  0.39058266
   0.22655259  0.77969193  0.28246939
   0.24425196  0.24464180 -0.00073710
   0.24425196  0.74464180  0.49926290
   0.74414090  0.75644681  0.99748344
   0.74414090  0.25644681  0.49748338
   0.79552441  0.75087603  0.65381078
   0.79552441  0.25087605  0.15381079
   0.79320639  0.75198068  0.44879705
   0.79320639  0.25198068  0.94879702
   0.29167353  0.24749448  0.54960177
   0.29526769  0.24840564  0.65356691
   0.29526769  0.74840564  0.15356691
   0.29167353  0.74749447  0.04960176
   0.29122097  0.24688564  0.44894623
   0.29122097  0.74688564  0.94894623
   0.79012042  0.75383255  0.54955767
   0.79012042  0.25383255  0.04955766
   0.60318539  0.55301814  0.05540924
   0.31479408  0.31680686  0.40484729
   0.52633953  0.47286061  0.13760956
   0.29756631  0.18066601  0.30228853
   0.50293046  0.49435183  0.25108604
   0.01091881  0.95877925  0.03910100
   0.10465102  0.05359535  0.14984873
   0.60318539  0.05301815  0.55540922
   0.31479408  0.81680686  0.90484729
   0.52633953  0.97286064  0.63760955
   0.29756631  0.68066598  0.80228853
   0.50293046  0.99435186  0.75108607
   0.01091881  0.45877928  0.53910100
   0.10465102  0.55359540  0.64984876
   0.10311032  0.44458625  0.94691046
   0.82004379  0.67993745  0.59620064
   0.02943046  0.52687306  0.86261550
   0.78848442  0.80931692  0.69582167
   0.00280385  0.50348832  0.74850897
   0.51146145  0.03830893  0.96232677
   0.60384969  0.94812766  0.85036198
   0.10311032  0.94458628  0.44691043
   0.82004379  0.17993745  0.09620066
   0.02943046  0.02687309  0.36261550
   0.78848442  0.30931692  0.19582167
   0.00280385  0.00348835  0.24850898
   0.51146145  0.53830895  0.46232674
   0.60384969  0.44812772  0.35036201
   0.10664510  0.44273530  0.05433385
   0.81536422  0.68387165  0.40462752
   0.02642159  0.52482916  0.13772673
   0.80000575  0.81948520  0.30253400
   0.00247630  0.50597517  0.25103949
   0.50797204  0.04471016  0.03988048
   0.60606883  0.94454697  0.15036731
   0.10664510  0.94273527  0.55433390