BiTiFeO                                 
           1
     5.484220    0.000731    0.001116
     0.000732    5.478150   -0.002310
     0.008319    0.045029   40.449175
   Bi   Ti   O    Fe
  20  12  60   4
Direct configuration=     1
   0.25163469  0.24552768  0.10456018
   0.23768441  0.27533320  0.21951799
   0.25163469  0.74552768  0.60456020
   0.23768441  0.77533323  0.71951795
   0.75163466  0.75447232  0.89543980
   0.73768437  0.72466677  0.78048205
   0.75163466  0.25447232  0.39543983
   0.73768437  0.22466679  0.28048199
   0.74778056  0.75425547  0.10488448
   0.73468602  0.72707325  0.21940872
   0.74778056  0.25425550  0.60488451
   0.73468602  0.22707324  0.71940875
   0.24778058  0.24574450  0.89511549
   0.23468603  0.27292678  0.78059125
   0.24778058  0.74574453  0.39511553
   0.23468603  0.77292675  0.28059128
   0.24248166  0.24192810  0.00106251
   0.24248166  0.74192810  0.50106251
   0.74248165  0.75807190  0.99893749
   0.74248165  0.25807190  0.49893743
   0.79474807  0.74971396  0.34751427
   0.79474807  0.24971396  0.84751427
   0.79556835  0.74996662  0.65309596
   0.79556835  0.24996664  0.15309598
   0.79018825  0.75150693  0.45036468
   0.79018825  0.25150693  0.95036465
   0.29018825  0.24849309  0.54963535
   0.29018825  0.74849307  0.04963534
   0.29145211  0.24496144  0.45021892
   0.29145211  0.74496144  0.95021892
   0.79145211  0.75503856  0.54978108
   0.79145211  0.25503856  0.04978108
   0.60797232  0.55333757  0.05623510
   0.32074291  0.32244712  0.40269166
   0.52769464  0.47232899  0.13806446
   0.29197162  0.18621907  0.30358261
   0.50278539  0.49499974  0.25136027
   0.00366211  0.96418035  0.03809405
   0.10417966  0.05360783  0.15095773
   0.60797232  0.05333758  0.55623508
   0.32074291  0.82244712  0.90269166
   0.52769464  0.97232902  0.63806444
   0.29197162  0.68621904  0.80358261
   0.50278539  0.99499977  0.75136030
   0.00366211  0.46418038  0.53809404
   0.10417966  0.55360788  0.65095776
   0.10797235  0.44666240  0.94376492
   0.82074291  0.67755288  0.59730834
   0.02769462  0.52767098  0.86193556
   0.79197168  0.81378096  0.69641739
   0.00278540  0.50500023  0.74863970
   0.50366211  0.03581963  0.96190596
   0.60417968  0.94639212  0.84904224
   0.10797235  0.94666243  0.44376490
   0.82074291  0.17755288  0.09730835
   0.02769462  0.02767100  0.36193556
   0.79197168  0.31378096  0.19641739
   0.00278540  0.00500026  0.24863972
   0.50366211  0.53581965  0.46190593
   0.60417968  0.44639218  0.34904227
   0.10746492  0.42657372  0.05429961
   0.82924741  0.67528647  0.40033671
   0.02685624  0.52419931  0.13827106
   0.79467112  0.81472349  0.30391791
   0.00275614  0.50483209  0.25127208
   0.50846183  0.05460011  0.03958693
   0.60779965  0.94555801  0.15167758
   0.10746492  0.92657369  0.55429965
   0.82924741  0.17528649  0.90033674
   0.02685624  0.02419928  0.63827103
   0.79467112  0.31472352  0.80391788
   0.00275614  0.00483209  0.75127208
   0.50846183  0.55460012  0.53958690
   0.60779965  0.44555801  0.65167761
   0.60746491  0.57342631  0.94570035
   0.32924739  0.32471353  0.59966326
   0.52685618  0.47580072  0.86172897
   0.29467115  0.18527651  0.69608212
   0.50275618  0.49516791  0.74872792
   0.00846184  0.94539988  0.96041310
   0.10779966  0.05444197  0.84832239
   0.60746491  0.07342626  0.44570041
   0.32924739  0.82471353  0.09966327
   0.52685618  0.97580069  0.36172894
   0.29467115  0.68527651  0.19608207
   0.50275618  0.99516791  0.24872789
   0.00846184  0.44539991  0.46041310
   0.10779966  0.55444199  0.34832245
   0.31750971  0.15670252  0.49889919
   0.31750971  0.65670258  0.99889922
   0.81750971  0.84329742  0.50110078
   0.81750971  0.34329748  0.00110078
   0.29556838  0.25003338  0.34690401
   0.29556838  0.75003338  0.84690404
   0.29474810  0.25028604  0.65248573
   0.29474810  0.75028604  0.15248573
BiTiFeO                                 
           1
     5.507562    0.000130    0.001771
     0.000132    5.503925   -0.004941
     0.013088    0.026009   40.910207
   Bi   Ti   O    Fe
  20  12  60   4
Direct configuration=     2
   0.25295041  0.24739891  0.10733900
   0.23787079  0.27660000  0.21917384
   0.25295041  0.74739891  0.60733902
   0.23787079  0.77660003  0.71917380
   0.75202356  0.75140411  0.89240263
   0.73580845  0.72465248  0.78073736
   0.75202356  0.25140411  0.39240266
   0.73580845  0.22465250  0.28073730
   0.74967852  0.75204226  0.10757644
   0.73336226  0.72693188  0.21902440
   0.74967852  0.25204229  0.60757647
   0.73336226  0.22693187  0.71902443
   0.25145579  0.24776689  0.89213134
   0.23542901  0.27520842  0.78089837
   0.25145579  0.74776692  0.39213137
   0.23542901  0.77520839  0.28089840
   0.24408955  0.24176059  0.00161339
   0.24408955  0.74176059  0.50161339
   0.74406241  0.75864329  0.99939508
   0.74406241  0.25864329  0.49939502
   0.79601550  0.74943563  0.34626590
   0.79601550  0.24943563  0.84626590
   0.79710350  0.74883023  0.65362343
   0.79710350  0.24883025  0.15362344
   0.79260580  0.75347002  0.44890136
   0.79260580  0.25347002  0.94890133
   0.29287163  0.24720292  0.55152380
   0.29287163  0.74720290  0.05152379
   0.29150003  0.24566940  0.44818111
   0.29150003  0.74566940  0.94818111
   0.79194184  0.75500255  0.55198912
   0.79194184  0.25500255  0.05198912
   0.60410709  0.55388054  0.05508792
   0.31979877  0.32012111  0.40465340
   0.52715292  0.47182512  0.13721564
   0.29307339  0.18491869  0.30334129
   0.50287564  0.49518155  0.25138627
   0.00572844  0.96131948  0.03759941
   0.10583785  0.05606051  0.15010474
   0.60410709  0.05388055  0.55508790
   0.31979877  0.82012111  0.90465340
   0.52715292  0.97182515  0.63721562
   0.29307339  0.68491866  0.80334129
   0.50287564  0.99518158  0.75138630
   0.00572844  0.46131951  0.53759941
   0.10583785  0.55606056  0.65010477
   0.09975437  0.44346833  0.94484375
   0.81935764  0.68007882  0.59558065
   0.02606262  0.52722591  0.86297884
   0.79180857  0.81392404  0.69651679
   0.00223934  0.50461696  0.74863817
   0.51018089  0.04148011  0.96193840
   0.60709942  0.94587649  0.85000493
   0.09975437  0.94346836  0.44484372
   0.81935764  0.18007882  0.09558067
   0.02606262  0.02722593  0.36297884
   0.79180857  0.31392404  0.19651679
   0.00223934  0.00461699  0.24863819
   0.51018089  0.54148014  0.46193837
   0.60709942  0.44587655  0.35000496
   0.10856141  0.43484967  0.05330450
   0.82488671  0.67976160  0.40358197
   0.02627308  0.52460294  0.13736328
   0.79432532  0.81432752  0.30408500
   0.00224734  0.50474971  0.25129110
   0.50370044  0.04852611  0.03894062
   0.60933023  0.94410857  0.15084762
   0.10856141  0.93484964  0.55330454
   0.82488671  0.17976162  0.90358200
   0.02627308  0.02460291  0.63736325
   0.79432532  0.31432755  0.80408497
   0.00224734  0.00474971  0.75129110
   0.50370044  0.54852612  0.53894059
   0.60933023  0.44410857  0.65084765
   0.61158320  0.55998776  0.94650900
   0.32600347  0.32122887  0.59704048
   0.52706113  0.47451602  0.86277682
   0.29564230  0.18469854  0.69615806
   0.50289515  0.49493458  0.74870894
   0.00165200  0.95469670  0.96066589
   0.10824985  0.05815041  0.84939485
   0.61158320  0.05998771  0.44650906
   0.32600347  0.82122887  0.09704049
   0.52706113  0.97451599  0.36277679
   0.29564230  0.68469854  0.19615802
   0.50289515  0.99493458  0.24870891
   0.00165200  0.45469673  0.46066589
   0.10824985  0.55815043  0.34939490
   0.31796478  0.15898697  0.49969622
   0.31796478  0.65898703  0.99969625
   0.81756288  0.84076988  0.49950567
   0.81756288  0.34076994 -0.00049433
   0.29457553  0.24957479  0.34600914
   0.29457553  0.74957479  0.84600917
   0.29363888  0.24953191  0.65345398
   0.29363888  0.74953191  0.15345398
BiTiFeO                                 
           1
     5.494138   -0.000745    0.001414
    -0.000743    5.488614   -0.003583
     0.010391    0.036054   40.940947
   Bi   Ti   O    Fe
  20  12  60   4
Direct configuration=     3
   0.25454343  0.24855073  0.10725225
   0.23828519  0.27709744  0.21920924
   0.25454343  0.74855073  0.60725226
   0.23828519  0.77709747  0.71920919
   0.75336867  0.75054442  0.89269218
   0.73549963  0.72577294  0.78077039
   0.75336867  0.25054442  0.39269220
   0.73549963  0.22577296  0.28077033
   0.75096021  0.75081638  0.10750831
   0.73319090  0.72762996  0.21902409
   0.75096021  0.25081641  0.60750833
   0.73319090  0.22762994  0.71902412
   0.25275307  0.24882942  0.89242779
   0.23608460  0.27570970  0.78089931
   0.25275307  0.74882944  0.39242782
   0.23608460  0.77570967  0.28089934
   0.24389947  0.24237237  0.00128680
   0.24389947  0.74237237  0.50128680
   0.74401594  0.75807333  0.99918429
   0.74401594  0.25807333  0.49918423
   0.79594515  0.74916215  0.34692994
   0.79594515  0.24916215  0.84692994
   0.79681570  0.74915859  0.65353830
   0.79681570  0.24915860  0.15353832
   0.79234483  0.75318107  0.44936463
   0.79234483  0.25318107  0.94936460
   0.29226023  0.24734578  0.55091284
   0.29226023  0.74734576  0.05091283
   0.29065699  0.24508489  0.44911477
   0.29065699  0.74508489  0.94911477
   0.79100366  0.75486599  0.55082744
   0.79100366  0.25486599  0.05082744
   0.60322591  0.55462106  0.05510621
   0.31956265  0.32054008  0.40402742
   0.52780439  0.47147832  0.13724169
   0.29324448  0.18418095  0.30300723
   0.50321594  0.49503846  0.25140112
   0.00738896  0.96054373  0.03791626
   0.10526999  0.05564843  0.15012469
   0.60322591  0.05462106  0.55510619
   0.31956265  0.82054008  0.90402742
   0.52780439  0.97147835  0.63724167
   0.29324448  0.68418092  0.80300723
   0.50321594  0.99503849  0.75140115
   0.00738896  0.46054376  0.53791626
   0.10526999  0.55564848  0.65012472
   0.10099288  0.44438445  0.94487240
   0.81906978  0.67957572  0.59628648
   0.02611158  0.52695127  0.86285778
   0.79152608  0.81348642  0.69666738
   0.00184684  0.50442389  0.74861848
   0.50997260  0.04103165  0.96183936
   0.60628268  0.94691794  0.84987645
   0.10099288  0.94438448  0.44487237
   0.81906978  0.17957572  0.09628650
   0.02611158  0.02695129  0.36285778
   0.79152608  0.31348642  0.19666738
   0.00184684  0.00442392  0.24861849
   0.50997260  0.54103167  0.46183933
   0.60628268  0.44691800  0.34987648
   0.10883644  0.43704732  0.05344606
   0.82379610  0.67974828  0.40330675
   0.02588355  0.52425543  0.13735666
   0.79390686  0.81454101  0.30347329
   0.00180236  0.50462394  0.25128418
   0.50434172  0.04702216  0.03917230
   0.60884872  0.94499176  0.15083449
   0.10883644  0.93704729  0.55344610
   0.82379610  0.17974829  0.90330678
   0.02588355  0.02425540  0.63735663
   0.79390686  0.31454104  0.80347326
   0.00180236  0.00462394  0.75128418
   0.50434172  0.54702217  0.53917228
   0.60884872  0.44499176  0.65083452
   0.61014570  0.56000100  0.94641907
   0.32483819  0.32080589  0.59701602
   0.52760018  0.47436398  0.86265776
   0.29580196  0.18400950  0.69648645
   0.50317490  0.49469046  0.74866662
   0.00311348  0.95455694  0.96064185
   0.10742928  0.05737535  0.84929480
   0.61014570  0.06000095  0.44641913
   0.32483819  0.82080589  0.09701603
   0.52760018  0.97436395  0.36265773
   0.29580196  0.68400950  0.19648641
   0.50317490  0.99469046  0.24866659
   0.00311348  0.45455697  0.46064185
   0.10742928  0.55737538  0.34929486
   0.31808083  0.16023657  0.49993378
   0.31808083  0.66023663  0.99993381
   0.81783004  0.83980738  0.49968353
   0.81783004  0.33980744 -0.00031647
   0.29415412  0.24951019  0.34605183
   0.29415412  0.74951019  0.84605186
   0.29327282  0.24939516  0.65348891
   0.29327282  0.74939516  0.15348891
BiTiFeO                                 
           1
     5.495187   -0.000806    0.001304
    -0.000804    5.489773   -0.003636
     0.009563    0.035698   40.985602
   Bi   Ti   O    Fe
  20  12  60   4
Direct configuration=     4
   0.25585313  0.24981286  0.10761951
   0.23844571  0.27896012  0.21964966
   0.25585313  0.74981286  0.60761953
   0.23844571  0.77896015  0.71964961
   0.75387616  0.74958187  0.89256811
   0.73474117  0.72704970  0.78046383
   0.75387616  0.24958187  0.39256814
   0.73474117  0.22704971  0.28046377
   0.75250128  0.74949837  0.10787991
   0.73249761  0.72851336  0.21941666
   0.75250128  0.24949840  0.60787994
   0.73249761  0.22851334  0.71941669
   0.25474079  0.24982433  0.89231948
   0.23625590  0.27774101  0.78051624
   0.25474079  0.74982436  0.39231951
   0.23625590  0.77774098  0.28051627
   0.24404613  0.24333130  0.00093402
   0.24404613  0.74333130  0.50093402
   0.74396754  0.75725437  0.99894340
   0.74396754  0.25725437  0.49894334
   0.79620871  0.75071203  0.34601175
   0.79620871  0.25071203  0.84601175
   0.79672947  0.74993670  0.65408847
   0.79672947  0.24993671  0.15408849
   0.79232547  0.75250544  0.44934535
   0.79232547  0.25250544  0.94934532
   0.29212208  0.24771284  0.55088300
   0.29212208  0.74771283  0.05088299
   0.29041409  0.24602207  0.44924753
   0.29041409  0.74602207  0.94924753
   0.79057451  0.75365441  0.55063066
   0.79057451  0.25365441  0.05063066
   0.60222666  0.55453885  0.05471555
   0.31855215  0.31931947  0.40441557
   0.52866024  0.47127026  0.13720737
   0.29394716  0.18346877  0.30312475
   0.50402945  0.49470842  0.25133474
   0.01009574  0.95968936  0.03823655
   0.10504960  0.05562945  0.14982479
   0.60222666  0.05453885  0.55471553
   0.31855215  0.81931947  0.90441557
   0.52866024  0.97127029  0.63720735
   0.29394716  0.68346874  0.80312475
   0.50402945  0.99470845  0.75133477
   0.01009574  0.45968939  0.53823654
   0.10504960  0.55562950  0.64982482
   0.10237528  0.44605881  0.94527430
   0.81787367  0.68104092  0.59584275
   0.02595589  0.52611109  0.86283676
   0.79110713  0.81161232  0.69616736
   0.00142060  0.50419942  0.74865095
   0.51029440  0.04024753  0.96177770
   0.60582747  0.94808998  0.85011540
   0.10237528  0.94605884  0.44527427
   0.81787367  0.18104092  0.09584276
   0.02595589  0.02611111  0.36283676
   0.79110713  0.31161232  0.19616736
   0.00142060  0.00419945  0.24865097
   0.51029440  0.54024755  0.46177767
   0.60582747  0.44809004  0.35011543
   0.10802245  0.44129124  0.05336368
   0.82094816  0.68111270  0.40375391
   0.02560491  0.52389623  0.13723903
   0.79329931  0.81219648  0.30425388
   0.00128547  0.50435670  0.25118440
   0.50593945  0.04450740  0.03925456
   0.60806444  0.94578849  0.15045525
   0.10802245  0.94129121  0.55336372
   0.82094816  0.18111272  0.90375394
   0.02560491  0.02389621  0.63723900
   0.79329931  0.31219651  0.80425385
   0.00128547  0.00435671  0.75118440
   0.50593945  0.54450741  0.53925453
   0.60806444  0.44578849  0.65045528
   0.60743041  0.55839117  0.94652724
   0.32182476  0.31892838  0.59600869
   0.52874996  0.47397754  0.86266067
   0.29642899  0.18308839  0.69650718
   0.50393849  0.49440261  0.74864382
   0.00594930  0.95514314  0.96075964
   0.10619829  0.05733636  0.84961219
   0.60743041  0.05839112  0.44652730
   0.32182476  0.81892838  0.09600871
   0.52874996  0.97397751  0.36266064
   0.29642899  0.68308839  0.19650714
   0.50393849  0.99440261  0.24864379
   0.00594930  0.45514317  0.46075964
   0.10619829  0.55733638  0.34961224
   0.31875423  0.16280217  0.50020129
   0.31875423  0.66280223  1.00020131
   0.81862324  0.83750532  0.49992721
   0.81862324  0.33750538 -0.00007279
   0.29349538  0.24867067  0.34530795
   0.29349538  0.74867067  0.84530798
   0.29272723  0.24850940  0.65429720
   0.29272723  0.74850940  0.15429720
BiTiFeO                                 
           1
     5.490889   -0.001612    0.000078
    -0.001609    5.484577   -0.002956
     0.000365    0.040850   41.149432
   Bi   Ti   O    Fe
  20  12  60   4
Direct configuration=     5
   0.25591218  0.24981587  0.10758371
   0.23846157  0.27902982  0.21963903
   0.25591218  0.74981587  0.60758373
   0.23846157  0.77902985  0.71963898
   0.75388827  0.74959407  0.89258800
   0.73473159  0.72717102  0.78047138
   0.75388827  0.24959407  0.39258803
   0.73473159  0.22717103  0.28047132
   0.75255853  0.74949890  0.10784376
   0.73251568  0.72859436  0.21940264
   0.75255853  0.24949893  0.60784378
   0.73251568  0.22859435  0.71940267
   0.25481715  0.24982551  0.89234035
   0.23629830  0.27783014  0.78052105
   0.25481715  0.74982554  0.39234038
   0.23629830  0.77783011  0.28052108
   0.24407875  0.24339778  0.00093309
   0.24407875  0.74339778  0.50093309
   0.74396901  0.75719313  0.99895405
   0.74396901  0.25719313  0.49895399
   0.79624649  0.75052261  0.34615699
   0.79624649  0.25052261  0.84615699
   0.79674584  0.74980778  0.65398882
   0.79674584  0.24980779  0.15398883
   0.79232348  0.75248765  0.44936688
   0.79232348  0.25248765  0.94936685
   0.29212253  0.24770208  0.55084325
   0.29212253  0.74770206  0.05084324
   0.29043008  0.24606154  0.44928613
   0.29043008  0.74606154  0.94928613
   0.79058364  0.75365520  0.55060239
   0.79058364  0.25365520  0.05060239
   0.60229375  0.55448286  0.05469994
   0.31851212  0.31931488  0.40439989
   0.52868291  0.47131603  0.13723235
   0.29398859  0.18331794  0.30305614
   0.50406404  0.49469318  0.25134092
   0.01012503  0.95973590  0.03824477
   0.10501370  0.05551163  0.14983421
   0.60229375  0.05448286  0.55469992
   0.31851212  0.81931488  0.90439989
   0.52868291  0.97131606  0.63723234
   0.29398859  0.68331791  0.80305614
   0.50406404  0.99469321  0.75134095
   0.01012503  0.45973593  0.53824476
   0.10501370  0.55551168  0.64983424
   0.10237425  0.44603766  0.94529099
   0.81782565  0.68106319  0.59585661
   0.02600579  0.52610681  0.86281500
   0.79106306  0.81166270  0.69625340
   0.00135125  0.50417947  0.74865421
   0.51036091  0.04023040  0.96177011
   0.60571413  0.94813236  0.85011065
   0.10237425  0.94603769  0.44529096
   0.81782565  0.18106319  0.09585662
   0.02600579  0.02610683  0.36281500
   0.79106306  0.31166270  0.19625340
   0.00135125  0.00417950  0.24865423
   0.51036091  0.54023042  0.46177008
   0.60571413  0.44813242  0.35011068
   0.10790905  0.44134763  0.05336523
   0.82081552  0.68115608  0.40375755
   0.02566256  0.52390059  0.13726129
   0.79323700  0.81231135  0.30412018
   0.00121383  0.50435281  0.25118745
   0.50606696  0.04445425  0.03924918
   0.60791803  0.94585143  0.15045773
   0.10790905  0.94134760  0.55336528
   0.82081552  0.18115609  0.90375758
   0.02566256  0.02390056  0.63726126
   0.79323700  0.31231138  0.80412015
   0.00121383  0.00435282  0.75118745
   0.50606696  0.54445426  0.53924915
   0.60791803  0.44585143  0.65045776
   0.60736860  0.55828412  0.94652911
   0.32168902  0.31891930  0.59602157
   0.52876409  0.47401261  0.86264113
   0.29646564  0.18294447  0.69657567
   0.50396466  0.49439151  0.74864433
   0.00604309  0.95525199  0.96076156
   0.10616444  0.05723198  0.84961116
   0.60736860  0.05828407  0.44652917
   0.32168902  0.81891930  0.09602159
   0.52876409  0.97401258  0.36264110
   0.29646564  0.68294447  0.19657563
   0.50396466  0.99439151  0.24864430
   0.00604309  0.45525202  0.46076156
   0.10616444  0.55723200  0.34961122
   0.31880501  0.16292279  0.50019551
   0.31880501  0.66292285  1.00019553
   0.81866282  0.83736779  0.49992556
   0.81866282  0.33736785 -0.00007444
   0.29347831  0.24875868  0.34535164
   0.29347831  0.74875868  0.84535167
   0.29271279  0.24856799  0.65426335
   0.29271279  0.74856799  0.15426335
BiTiFeO                                 
           1
     5.473911   -0.004266    0.001565
    -0.004260    5.468010   -0.003957
     0.011539    0.033318   41.470088
   Bi   Ti   O    Fe
  20  12  60   4
Direct configuration=     6
   0.25647136  0.24975126  0.10736775
   0.23823584  0.28035955  0.21968684
   0.25647136  0.74975126  0.60736776
   0.23823584  0.78035958  0.71968679
   0.75348219  0.74960297  0.89263568
   0.73472091  0.72838444  0.78039853
   0.75348219  0.24960297  0.39263571
   0.73472091  0.22838445  0.28039847
   0.75290373  0.74947386  0.10761358
   0.73276715  0.72940676  0.21942751
   0.75290373  0.24947389  0.60761360
   0.73276715  0.22940674  0.71942754
   0.25596741  0.24982831  0.89240966
   0.23631933  0.27947888  0.78041226
   0.25596741  0.74982834  0.39240969
   0.23631933  0.77947885  0.28041229
   0.24453561  0.24440323  0.00093427
   0.24453561  0.74440323  0.50093427
   0.74410209  0.75624304  0.99912003
   0.74410209  0.25624304  0.49911997
   0.79672262  0.75072548  0.34602996
   0.79672262  0.25072548  0.84602996
   0.79689549  0.74971562  0.65402685
   0.79689549  0.24971563  0.15402686
   0.79257716  0.75231354  0.44950846
   0.79257716  0.25231354  0.94950843
   0.29244973  0.24783201  0.55064728
   0.29244973  0.74783200  0.05064727
   0.29094330  0.24695640  0.44945177
   0.29094330  0.74695640  0.94945177
   0.79105642  0.75339307  0.55052828
   0.79105642  0.25339307  0.05052827
   0.60313334  0.55355212  0.05434353
   0.31778763  0.31875056  0.40460213
   0.52883870  0.47203238  0.13745246
   0.29470095  0.18226757  0.30277858
   0.50448415  0.49457149  0.25136496
   0.01066495  0.96047868  0.03830394
   0.10472017  0.05437378  0.14971057
   0.60313334  0.05355213  0.55434350
   0.31778763  0.81875056  0.90460213
   0.52883870  0.97203241  0.63745244
   0.29470095  0.68226755  0.80277858
   0.50448415  0.99457152  0.75136499
   0.01066495  0.46047871  0.53830394
   0.10472017  0.55437383  0.64971060
   0.10225884  0.44586427  0.94564985
   0.81693847  0.68191269  0.59570230
   0.02653552  0.52591408  0.86265115
   0.79063985  0.81043089  0.69617958
   0.00062629  0.50406761  0.74872177
   0.51146265  0.03987297  0.96170430
   0.60441697  0.94849612  0.85030719
   0.10225884  0.94586430  0.44564982
   0.81693847  0.18191269  0.09570232
   0.02653552  0.02591410  0.36265115
   0.79063985  0.31043089  0.19617958
   0.00062629  0.00406764  0.24872179
   0.51146265  0.53987300  0.46170427
   0.60441697  0.44849618  0.35030722
   0.10616265  0.44242133  0.05327758
   0.81859384  0.68218051  0.40402535
   0.02641164  0.52394850  0.13744345
   0.79253966  0.81105698  0.30415047
   0.00049604  0.50432339  0.25117781
   0.50800969  0.04348635  0.03908794
   0.60606368  0.94638484  0.15022100
   0.10616265  0.94242130  0.55327762
   0.81859384  0.18218053  0.90402538
   0.02641164  0.02394847  0.63744342
   0.79253966  0.31105701  0.80415044
   0.00049604  0.00432340  0.75117781
   0.50800969  0.54348635  0.53908792
   0.60606368  0.44638484  0.65022102
   0.60636217  0.55640806  0.94664853
   0.31946403  0.31829370  0.59577350
   0.52893700  0.47443031  0.86250892
   0.29705083  0.18180618  0.69694589
   0.50431685  0.49435779  0.74867298
   0.00753901  0.95701003  0.96084968
   0.10570095  0.05622235  0.84987508
   0.60636217  0.05640802  0.44664859
   0.31946403  0.81829370  0.09577352
   0.52893700  0.97443028  0.36250889
   0.29705083  0.68180618  0.19694584
   0.50431685  0.99435779  0.24867295
   0.00753901  0.45701006  0.46084968
   0.10570095  0.55622237  0.34987514
   0.31969631  0.16479515  0.50009856
   0.31969631  0.66479521  1.00009859
   0.81939279  0.83525474  0.49988442
   0.81939279  0.33525480 -0.00011558
   0.29323219  0.24881571  0.34516294
   0.29323219  0.74881571  0.84516297
   0.29267154  0.24835027  0.65452481
   0.29267154  0.74835027  0.15452481
BiTiFeO                                 
           1
     5.489717   -0.002465   -0.000137
    -0.002460    5.483911   -0.002838
    -0.001272    0.041860   41.354966
   Bi   Ti   O    Fe
  20  12  60   4
Direct configuration=     7
   0.25679576  0.24962701  0.10731459
   0.23815898  0.28318957  0.21975042
   0.25679576  0.74962701  0.60731460
   0.23815898  0.78318960  0.71975037
   0.75258069  0.74969156  0.89278219
   0.73448173  0.73137309  0.78033904
   0.75258069  0.24969156  0.39278222
   0.73448173  0.23137310  0.28033898
   0.75274977  0.74920663  0.10748771
   0.73290332  0.73140296  0.21952085
   0.75274977  0.24920666  0.60748773
   0.73290332  0.23140294  0.71952088
   0.25731680  0.25009328  0.89261836
   0.23732343  0.28286714  0.78033787
   0.25731680  0.75009331  0.39261839
   0.23732343  0.78286711  0.28033790
   0.24532037  0.24615019  0.00056003
   0.24532037  0.74615019  0.50056003
   0.74546068  0.75452477  0.99922968
   0.74546068  0.25452477  0.49922962
   0.79734519  0.74943759  0.34736966
   0.79734519  0.24943759  0.84736966
   0.79723824  0.74863197  0.65324895
   0.79723824  0.24863198  0.15324897
   0.79398072  0.75164603  0.44971115
   0.79398072  0.25164603  0.94971112
   0.29271047  0.24903824  0.55012950
   0.29271047  0.74903823  0.05012949
   0.29157968  0.24794599  0.44974010
   0.29157968  0.74794599  0.94974010
   0.79257621  0.75139767  0.55001932
   0.79257621  0.25139767  0.05001932
   0.60292952  0.55379102  0.05361514
   0.31657759  0.31785760  0.40497873
   0.52851774  0.47337681  0.13776265
   0.29628343  0.18066015  0.30234068
   0.50556804  0.49458029  0.25134078
   0.01314585  0.96120813  0.03845398
   0.10403592  0.05226776  0.14922248
   0.60292952  0.05379103  0.55361512
   0.31657759  0.81785760  0.90497873
   0.52851774  0.97337684  0.63776263
   0.29628343  0.68066012  0.80234068
   0.50556804  0.99458032  0.75134081
   0.01314585  0.46120816  0.53845397
   0.10403592  0.55226781  0.64922251
   0.10366208  0.44655720  0.94647483
   0.81528764  0.68318068  0.59559058
   0.02746934  0.52591959  0.86224876
   0.78966239  0.80832528  0.69674568
  -0.00149944  0.50407426  0.74882925
   0.51275509  0.03818794  0.96176733
   0.60144130  0.94987972  0.85074008
   0.10366208  0.94655723  0.44647480
   0.81528764  0.18318068  0.09559059
   0.02746934  0.02591961  0.36224876
   0.78966239  0.30832528  0.19674568
  -0.00149944  0.00407429  0.24882926
   0.51275509  0.53818797  0.46176730
   0.60144130  0.44987978  0.35074011
   0.10472360  0.44554861  0.05306950
   0.81431657  0.68383372  0.40443172
   0.02740824  0.52426849  0.13772044
   0.79079376  0.80960751  0.30290525
  -0.00144080  0.50416914  0.25107512
   0.51133802  0.04010206  0.03879586
   0.60255207  0.94752606  0.14946563
   0.10472360  0.94554858  0.55306954
   0.81431657  0.18383374  0.90443175
   0.02740824  0.02426846  0.63772041
   0.79079376  0.30960754  0.80290522
  -0.00144080  0.00416915  0.75107512
   0.51133802  0.54010207  0.53879583
   0.60255207  0.44752606  0.64946566
   0.60373998  0.55444819  0.94698086
   0.31554922  0.31697456  0.59512177
   0.52873427  0.47515732  0.86214305
   0.29828035  0.18018064  0.69752553
   0.50538341  0.49416799  0.74867761
   0.01124982  0.95951156  0.96123590
   0.10446078  0.05344662  0.85045923
   0.60373998  0.05444814  0.44698092
   0.31554922  0.81697456  0.09512179
   0.52873427  0.97515729  0.36214302
   0.29828035  0.68018064  0.19752548
   0.50538341  0.99416799  0.24867758
   0.01124982  0.45951159  0.46123590
   0.10446078  0.55344664  0.35045929
   0.32138858  0.16853142  0.50017106
   0.32138858  0.66853148  1.00017109
   0.82108003  0.83152732  0.50004436
   0.82108003  0.33152738  0.00004436
   0.29298776  0.24793592  0.34469752
   0.29298776  0.74793592  0.84469755
   0.29309549  0.24697256  0.65520915
   0.29309549  0.74697256  0.15520915
BiTiFeO                                 
           1
     5.479058   -0.002990    0.000197
    -0.002985    5.472598   -0.003133
     0.001240    0.039543   41.356653
   Bi   Ti   O    Fe
  20  12  60   4
Direct configuration=     8
   0.25695396  0.24960218  0.10723069
   0.23796223  0.28186302  0.21968682
   0.25695396  0.74960218  0.60723070
   0.23796223  0.78186305  0.71968678
   0.75262470  0.74954659  0.89276190
   0.73514129  0.73031761  0.78037369
   0.75262470  0.24954659  0.39276192
   0.73514129  0.23031762  0.28037363
   0.75276236  0.74909006  0.10740392
   0.73343354  0.73084813  0.21947445
   0.75276236  0.24909009  0.60740394
   0.73343354  0.23084811  0.71947448
   0.25727695  0.24995166  0.89257511
   0.23657483  0.28139672  0.78037505
   0.25727695  0.74995169  0.39257514
   0.23657483  0.78139669  0.28037508
   0.24560367  0.24576434  0.00073398
   0.24560367  0.74576434  0.50073398
   0.74499594  0.75493087  0.99933543
   0.74499594  0.25493087  0.49933537
   0.79689938  0.75077600  0.34609123
   0.79689938  0.25077600  0.84609123
   0.79684491  0.74972921  0.65389959
   0.79684491  0.24972922  0.15389961
   0.79304040  0.75194349  0.44983568
   0.79304040  0.25194349  0.94983565
   0.29309356  0.24819663  0.55034565
   0.29309356  0.74819661  0.05034564
   0.29186519  0.24794493  0.44980540
   0.29186519  0.74794493  0.94980540
   0.79201458  0.75282218  0.55029355
   0.79201458  0.25282218  0.05029355
   0.60368351  0.55314876  0.05374714
   0.31698746  0.31830810  0.40481862
   0.52847860  0.47290066  0.13769616
   0.29576295  0.18153561  0.30242523
   0.50480344  0.49471953  0.25133914
   0.01194199  0.96146647  0.03833538
   0.10399852  0.05237213  0.14935345
   0.60368351  0.05314877  0.55374712
   0.31698746  0.81830810  0.90481862
   0.52847860  0.97290069  0.63769615
   0.29576295  0.68153558  0.80242523
   0.50480344  0.99471956  0.75133917
   0.01194199  0.46146650  0.53833538
   0.10399852  0.55237218  0.64935348
   0.10284476  0.44574176  0.94624410
   0.81568415  0.68297033  0.59559617
   0.02703749  0.52587607  0.86241982
   0.79001149  0.80815288  0.69619707
  -0.00050170  0.50434552  0.74879631
   0.51300072  0.03895216  0.96172800
   0.60208430  0.94953600  0.85072340
   0.10284476  0.94574179  0.44624407
   0.81568415  0.18297033  0.09559619
   0.02703749  0.02587609  0.36241982
   0.79001149  0.30815288  0.19619707
  -0.00050170  0.00434555  0.24879633
   0.51300072  0.53895218  0.46172797
   0.60208430  0.44953606  0.35072343
   0.10484805  0.44398336  0.05307225
   0.81553801  0.68346277  0.40420408
   0.02698705  0.52425621  0.13766421
   0.79143749  0.80885306  0.30399837
  -0.00053644  0.50444389  0.25111083
   0.51077643  0.04141011  0.03879292
   0.60317319  0.94750892  0.14965257
   0.10484805  0.94398333  0.55307229