BiTiFeO                                 
           1
     5.542205   -0.004839    0.002559
    -0.004821    5.537079    0.001429
     0.018713    0.073158   40.414776
   Bi   Ti   O    Fe
  20  12  60   4
Direct configuration=     1
   0.25163469  0.24552768  0.10456018
   0.23768441  0.27533320  0.21951799
   0.25163469  0.74552768  0.60456020
   0.23768441  0.77533323  0.71951795
   0.75163466  0.75447232  0.89543980
   0.73768437  0.72466677  0.78048205
   0.75163466  0.25447232  0.39543983
   0.73768437  0.22466679  0.28048199
   0.74778056  0.75425547  0.10488448
   0.73468602  0.72707325  0.21940872
   0.74778056  0.25425550  0.60488451
   0.73468602  0.22707324  0.71940875
   0.24778058  0.24574450  0.89511549
   0.23468603  0.27292678  0.78059125
   0.24778058  0.74574453  0.39511553
   0.23468603  0.77292675  0.28059128
   0.24248166  0.24192810  0.00106251
   0.24248166  0.74192810  0.50106251
   0.74248165  0.75807190  0.99893749
   0.74248165  0.25807190  0.49893743
   0.79474807  0.74971396  0.34751427
   0.79474807  0.24971396  0.84751427
   0.79556835  0.74996662  0.65309596
   0.79556835  0.24996664  0.15309598
   0.79018825  0.75150693  0.45036468
   0.79018825  0.25150693  0.95036465
   0.29474810  0.25028604  0.65248573
   0.29474810  0.75028604  0.15248573
   0.29145211  0.24496144  0.45021892
   0.29145211  0.74496144  0.95021892
   0.79145211  0.75503856  0.54978108
   0.79145211  0.25503856  0.04978108
   0.60797232  0.55333757  0.05623510
   0.32074291  0.32244712  0.40269166
   0.52769464  0.47232899  0.13806446
   0.29197162  0.18621907  0.30358261
   0.50278539  0.49499974  0.25136027
   0.00366211  0.96418035  0.03809405
   0.10417966  0.05360783  0.15095773
   0.60797232  0.05333758  0.55623508
   0.32074291  0.82244712  0.90269166
   0.52769464  0.97232902  0.63806444
   0.29197162  0.68621904  0.80358261
   0.50278539  0.99499977  0.75136030
   0.00366211  0.46418038  0.53809404
   0.10417966  0.55360788  0.65095776
   0.10797235  0.44666240  0.94376492
   0.82074291  0.67755288  0.59730834
   0.02769462  0.52767098  0.86193556
   0.79197168  0.81378096  0.69641739
   0.00278540  0.50500023  0.74863970
   0.50366211  0.03581963  0.96190596
   0.60417968  0.94639212  0.84904224
   0.10797235  0.94666243  0.44376490
   0.82074291  0.17755288  0.09730835
   0.02769462  0.02767100  0.36193556
   0.79197168  0.31378096  0.19641739
   0.00278540  0.00500026  0.24863972
   0.50366211  0.53581965  0.46190593
   0.60417968  0.44639218  0.34904227
   0.10746492  0.42657372  0.05429961
   0.82924741  0.67528647  0.40033671
   0.02685624  0.52419931  0.13827106
   0.79467112  0.81472349  0.30391791
   0.00275614  0.50483209  0.25127208
   0.50846183  0.05460011  0.03958693
   0.60779965  0.94555801  0.15167758
   0.10746492  0.92657369  0.55429965
   0.82924741  0.17528649  0.90033674
   0.02685624  0.02419928  0.63827103
   0.79467112  0.31472352  0.80391788
   0.00275614  0.00483209  0.75127208
   0.50846183  0.55460012  0.53958690
   0.60779965  0.44555801  0.65167761
   0.60746491  0.57342631  0.94570035
   0.32924739  0.32471353  0.59966326
   0.52685618  0.47580072  0.86172897
   0.29467115  0.18527651  0.69608212
   0.50275618  0.49516791  0.74872792
   0.00846184  0.94539988  0.96041310
   0.10779966  0.05444197  0.84832239
   0.60746491  0.07342626  0.44570041
   0.32924739  0.82471353  0.09966327
   0.52685618  0.97580069  0.36172894
   0.29467115  0.68527651  0.19608207
   0.50275618  0.99516791  0.24872789
   0.00846184  0.44539991  0.46041310
   0.10779966  0.55444199  0.34832245
   0.31750971  0.15670252  0.49889919
   0.31750971  0.65670258  0.99889922
   0.81750971  0.84329742  0.50110078
   0.81750971  0.34329748  0.00110078
   0.29556838  0.25003338  0.34690401
   0.29556838  0.75003338  0.84690404
   0.29018825  0.24849309  0.54963535
   0.29018825  0.74849307  0.04963534
BiTiFeO                                 
           1
     5.515706   -0.001934    0.005792
    -0.001916    5.510258   -0.002607
     0.042108    0.043326   40.649893
   Bi   Ti   O    Fe
  20  12  60   4
Direct configuration=     2
   0.25170523  0.24471368  0.10475393
   0.23764044  0.27516953  0.21988992
   0.25170523  0.74471368  0.60475394
   0.23764044  0.77516956  0.71988987
   0.75131568  0.75138385  0.89282339
   0.73580187  0.72413083  0.78117350
   0.75131568  0.25138385  0.39282342
   0.73580187  0.22413084  0.28117344
   0.74614883  0.75417619  0.10500706
   0.73439529  0.72722959  0.21973065
   0.74614883  0.25417622  0.60500708
   0.73439529  0.22722957  0.71973068
   0.25178208  0.24744596  0.89256235
   0.23474016  0.27580062  0.78128971
   0.25178208  0.74744599  0.39256238
   0.23474016  0.77580059  0.28128974
   0.24465617  0.24185350  0.00237289
   0.24465617  0.74185350  0.50237289
   0.74211704  0.75940210  1.00021963
   0.74211704  0.25940210  0.50021957
   0.79587497  0.74894018  0.34670608
   0.79587497  0.24894018  0.84670608
   0.79587327  0.74931015  0.65334211
   0.79587327  0.24931017  0.15334213
   0.79098741  0.75399253  0.44927196
   0.79098741  0.25399253  0.94927193
   0.29514352  0.25081470  0.65272001
   0.29514352  0.75081470  0.15272001
   0.29048983  0.24501492  0.44912568
   0.29048983  0.74501492  0.94912568
   0.79094753  0.75306998  0.55074207
   0.79094753  0.25306998  0.05074207
   0.60862860  0.55432005  0.05576944
   0.32030992  0.32149412  0.40413290
   0.52701817  0.47196535  0.13784755
   0.29335434  0.18283115  0.30295456
   0.50270160  0.49518734  0.25124965
   0.00306302  0.96394491  0.03749834
   0.10439094  0.05509926  0.15082267
   0.60862860  0.05432006  0.55576942
   0.32030992  0.82149412  0.90413290
   0.52701817  0.97196538  0.63784753
   0.29335434  0.68283113  0.80295456
   0.50270160  0.99518737  0.75124968
   0.00306302  0.46394494  0.53749833
   0.10439094  0.55509931  0.65082270
   0.09786147  0.44065742  0.94440989
   0.82084136  0.67746850  0.59728339
   0.02473615  0.52560095  0.86279660
   0.79190948  0.81411455  0.69666900
   0.00287379  0.50497404  0.74857018
   0.51333348  0.04395393  0.96154720
   0.60839086  0.94836268  0.84970119
   0.09786147  0.94065745  0.44440986
   0.82084136  0.17746850  0.09728340
   0.02473615  0.02560097  0.36279660
   0.79190948  0.31411455  0.19666900
   0.00287379  0.00497407  0.24857019
   0.51333348  0.54395396  0.46154717
   0.60839086  0.44836274  0.34970122
   0.10937987  0.42820702  0.05394084
   0.82503516  0.67956254  0.40323571
   0.02613128  0.52381894  0.13812013
   0.79473009  0.81529570  0.30366175
   0.00261165  0.50460153  0.25117717
   0.50737772  0.05367382  0.03895001
   0.60855985  0.94456960  0.15159529
   0.10937987  0.92820699  0.55394089
   0.82503516  0.17956255  0.90323574
   0.02613128  0.02381891  0.63812010
   0.79473009  0.31529572  0.80366172
   0.00261165  0.00460153  0.75117717
   0.50737772  0.55367382  0.53894998
   0.60855985  0.44456960  0.65159532
   0.61470713  0.55805489  0.94610975
   0.32980818  0.32713658  0.59952078
   0.52787784  0.47306930  0.86262556
   0.29464783  0.18516835  0.69634630
   0.50254727  0.49513418  0.74866616
   0.00020220  0.95631955  0.96028487
   0.10659443  0.06013381  0.84917336
   0.61470713  0.05805484  0.44610981
   0.32980818  0.82713658  0.09952079
   0.52787784  0.97306927  0.36262553
   0.29464783  0.68516835  0.19634626
   0.50254727  0.99513418  0.24866613
   0.00020220  0.45631958  0.46028487
   0.10659443  0.56013383  0.34917342
   0.31851312  0.15604198  0.49842671
   0.31851312  0.65604204  0.99842674
   0.81719268  0.84121353  0.49905019
   0.81719268  0.34121359 -0.00094981
   0.29591998  0.24772819  0.34608173
   0.29591998  0.74772819  0.84608176
   0.28913089  0.24784775  0.55005012
   0.28913089  0.74784773  0.05005011
BiTiFeO                                 
           1
     5.502695   -0.000389    0.004912
    -0.000373    5.496874   -0.001277
     0.035485    0.053066   40.699517
   Bi   Ti   O    Fe
  20  12  60   4
Direct configuration=     3
   0.25257707  0.24555248  0.10481906
   0.23771507  0.27471787  0.22013546
   0.25257707  0.74555248  0.60481908
   0.23771507  0.77471790  0.72013541
   0.75284792  0.75036993  0.89313164
   0.73433191  0.72465812  0.78118614
   0.75284792  0.25036993  0.39313167
   0.73433191  0.22465813  0.28118608
   0.74649182  0.75304354  0.10504329
   0.73523318  0.72774436  0.21989804
   0.74649182  0.25304357  0.60504332
   0.73523318  0.22774434  0.71989807
   0.25251775  0.24861355  0.89288588
   0.23506195  0.27743293  0.78137275
   0.25251775  0.74861358  0.39288591
   0.23506195  0.77743290  0.28137278
   0.24400394  0.24259175  0.00175447
   0.24400394  0.74259175  0.50175447
   0.74226018  0.75873764  0.99972045
   0.74226018  0.25873764  0.49972039
   0.79630775  0.74912337  0.34751355
   0.79630775  0.24912337  0.84751355
   0.79576328  0.74973933  0.65336024
   0.79576328  0.24973934  0.15336026
   0.79191327  0.75338475  0.44954556
   0.79191327  0.25338475  0.94954553
   0.29439170  0.25046737  0.65277786
   0.29439170  0.75046737  0.15277786
   0.28877256  0.24424170  0.44963870
   0.28877256  0.74424170  0.94963870
   0.79045229  0.75416891  0.54991308
   0.79045229  0.25416891  0.04991308
   0.60670281  0.55494989  0.05570254
   0.32021184  0.32113179  0.40377399
   0.52723062  0.47200644  0.13782332
   0.29406152  0.18159903  0.30253885
   0.50322506  0.49496669  0.25130555
   0.00625983  0.96223093  0.03794524
   0.10441557  0.05433264  0.15085897
   0.60670281  0.05494990  0.55570251
   0.32021184  0.82113179  0.90377399
   0.52723062  0.97200647  0.63782330
   0.29406152  0.68159900  0.80253885
   0.50322506  0.99496672  0.75130558
   0.00625983  0.46223096  0.53794523
   0.10441557  0.55433269  0.65085900
   0.10133623  0.44433430  0.94451734
   0.82064067  0.67762540  0.59739518
   0.02543941  0.52582154  0.86265130
   0.79160550  0.81356278  0.69660573
   0.00252772  0.50444073  0.74850213
   0.51140959  0.04168413  0.96156744
   0.60649439  0.94869284  0.84950276
   0.10133623  0.94433433  0.44451731
   0.82064067  0.17762540  0.09739520
   0.02543941  0.02582156  0.36265130
   0.79160550  0.31356278  0.19660573
   0.00252772  0.00444076  0.24850215
   0.51140959  0.54168415  0.46156741
   0.60649439  0.44869290  0.34950279
   0.11010198  0.43266265  0.05397012
   0.82330250  0.67931083  0.40295914
   0.02642394  0.52413749  0.13807020
   0.79443228  0.81577284  0.30299574
   0.00213329  0.50498398  0.25117542
   0.50748114  0.05022192  0.03932762
   0.60803595  0.94480056  0.15160816
   0.11010198  0.93266262  0.55397016
   0.82330250  0.17931084  0.90295916
   0.02642394  0.02413747  0.63807017
   0.79443228  0.31577287  0.80299571
   0.00213329  0.00498398  0.75117542
   0.50748114  0.55022193  0.53932759
   0.60803595  0.44480056  0.65160819
   0.61065069  0.55927602  0.94598006
   0.32919045  0.32586943  0.59875535
   0.52863052  0.47353575  0.86245748
   0.29440693  0.18570163  0.69624317
   0.50314204  0.49476091  0.74856129
   0.00356278  0.95454492  0.96042346
   0.10640574  0.05796902  0.84900815
   0.61065069  0.05927597  0.44598012
   0.32919045  0.82586943  0.09875536
   0.52863052  0.97353572  0.36245745
   0.29440693  0.68570163  0.19624313
   0.50314204  0.99476091  0.24856126
   0.00356278  0.45454495  0.46042346
   0.10640574  0.55796904  0.34900821
   0.31886022  0.15818665  0.49915234
   0.31886022  0.65818671  0.99915237
   0.81806036  0.84048851  0.49970651
   0.81806036  0.34048857 -0.00029349
   0.29449288  0.24859667  0.34628196
   0.29449288  0.74859667  0.84628199
   0.28848359  0.24721331  0.54993727
   0.28848359  0.74721330  0.04993726
BiTiFeO                                 
           1
     5.503026   -0.000530    0.004767
    -0.000514    5.497370   -0.001518
     0.034378    0.051296   40.743218
   Bi   Ti   O    Fe
  20  12  60   4
Direct configuration=     4
   0.25293937  0.24591035  0.10488780
   0.23802949  0.27397058  0.22037479
   0.25293937  0.74591035  0.60488781
   0.23802949  0.77397061  0.72037475
   0.75287402  0.74997665  0.89307493
   0.73280316  0.72538917  0.78122420
   0.75287402  0.24997665  0.39307496
   0.73280316  0.22538919  0.28122414
   0.74699800  0.75260048  0.10509064
   0.73695750  0.72836712  0.22005638
   0.74699800  0.25260051  0.60509066
   0.73695750  0.22836710  0.72005641
   0.25458954  0.24874864  0.89281746
   0.23492710  0.27901862  0.78144910
   0.25458954  0.74874867  0.39281749
   0.23492710  0.77901859  0.28144913
   0.24493637  0.24259377  0.00176498
   0.24493637  0.74259377  0.50176498
   0.74207633  0.75896112  0.99981053
   0.74207633  0.25896112  0.49981047
   0.79638013  0.75040352  0.34624256
   0.79638013  0.25040352  0.84624256
   0.79571960  0.75016088  0.65360091
   0.79571960  0.25016089  0.15360093
   0.79155056  0.75272762  0.44956982
   0.79155056  0.25272762  0.94956979
   0.29416748  0.24982543  0.65309716
   0.29416748  0.74982543  0.15309716
   0.28931695  0.24553185  0.44965817
   0.28931695  0.74553185  0.94965817
   0.79075685  0.75464705  0.55011063
   0.79075685  0.25464705  0.05011063
   0.60539155  0.55473584  0.05532452
   0.31959879  0.32002939  0.40400789
   0.52698544  0.47223868  0.13778255
   0.29504849  0.18144014  0.30277765
   0.50341194  0.49480934  0.25132500
   0.00869767  0.96108028  0.03814381
   0.10474774  0.05401541  0.15075889
   0.60539155  0.05473584  0.55532450
   0.31959879  0.82002939  0.90400789
   0.52698544  0.97223871  0.63778254
   0.29504849  0.68144011  0.80277765
   0.50341194  0.99480937  0.75132503
   0.00869767  0.46108031  0.53814380
   0.10474774  0.55401546  0.65075892
   0.10188445  0.44583699  0.94480286
   0.82029093  0.67875624  0.59691125
   0.02626278  0.52591671  0.86263933
   0.79111548  0.81245623  0.69634710
   0.00228489  0.50395713  0.74844382
   0.51164106  0.04067831  0.96149660
   0.60532505  0.94850278  0.84967648
   0.10188445  0.94583702  0.44480283
   0.82029093  0.17875624  0.09691126
   0.02626278  0.02591673  0.36263933
   0.79111548  0.31245623  0.19634710
   0.00228489  0.00395716  0.24844383
   0.51164106  0.54067833  0.46149657
   0.60532505  0.44850284  0.34967651
   0.10965835  0.43664932  0.05377508
   0.82093414  0.68048778  0.40328439
   0.02666842  0.52455896  0.13800459
   0.79426205  0.81367746  0.30394843
   0.00171859  0.50544636  0.25117705
   0.50772183  0.04710363  0.03937078
   0.60717178  0.94449286  0.15144936
   0.10965835  0.93664929  0.55377513
   0.82093414  0.18048779  0.90328442
   0.02666842  0.02455893  0.63800456
   0.79426205  0.31367749  0.80394840
   0.00171859  0.00544636  0.75117705
   0.50772183  0.54710364  0.53937075
   0.60717178  0.44449286  0.65144939
   0.60801848  0.55733055  0.94598576
   0.32808242  0.32421966  0.59787762
   0.52897641  0.47410054  0.86247378
   0.29380550  0.18672181  0.69594778
   0.50341300  0.49464718  0.74847266
   0.00581267  0.95519493  0.96049765
   0.10633323  0.05680485  0.84923344
   0.60801848  0.05733051  0.44598582
   0.32808242  0.82421966  0.09787763
   0.52897641  0.97410051  0.36247375
   0.29380550  0.68672181  0.19594774
   0.50341300  0.99464718  0.24847263
   0.00581267  0.45519496  0.46049765
   0.10633323  0.55680487  0.34923350
   0.31938046  0.16083703  0.49956437
   0.31938046  0.66083709  0.99956439
   0.81866873  0.83877180  0.49983047
   0.81866873  0.33877186 -0.00016953
   0.29347969  0.24881484  0.34565592
   0.29347969  0.74881484  0.84565595
   0.28818519  0.24685393  0.55018299
   0.28818519  0.74685391  0.05018298
BiTiFeO                                 
           1
     5.496072   -0.001368    0.004959
    -0.001351    5.490076   -0.002302
     0.035668    0.045428   40.863110
   Bi   Ti   O    Fe
  20  12  60   4
Direct configuration=     5
   0.25296081  0.24588835  0.10484483
   0.23807905  0.27392245  0.22037104
   0.25296081  0.74588835  0.60484485
   0.23807905  0.77392248  0.72037099
   0.75284107  0.74999912  0.89309159
   0.73258947  0.72562840  0.78123477
   0.75284107  0.24999912  0.39309162
   0.73258947  0.22562841  0.28123471
   0.74698365  0.75259773  0.10504558
   0.73717048  0.72841258  0.22003966
   0.74698365  0.25259775  0.60504560
   0.73717048  0.22841256  0.72003969
   0.25473002  0.24873353  0.89283345
   0.23501685  0.27913326  0.78146466
   0.25473002  0.74873356  0.39283348
   0.23501685  0.77913323  0.28146469
   0.24507337  0.24261975  0.00178141
   0.24507337  0.74261975  0.50178141
   0.74206483  0.75897740  0.99984462
   0.74206483  0.25897740  0.49984456
   0.79641222  0.75012807  0.34642155
   0.79641222  0.25012807  0.84642155
   0.79572305  0.75008297  0.65353092
   0.79572305  0.25008298  0.15353093
   0.79159300  0.75270296  0.44957491
   0.79159300  0.25270296  0.94957488
   0.29419713  0.24986222  0.65301856
   0.29419713  0.74986222  0.15301856
   0.28940549  0.24561004  0.44968374
   0.28940549  0.74561004  0.94968374
   0.79078844  0.75458463  0.55008931
   0.79078844  0.25458463  0.05008931
   0.60539837  0.55466151  0.05529782
   0.31954139  0.31997343  0.40401319
   0.52698578  0.47224343  0.13779586
   0.29518552  0.18126586  0.30270546
   0.50344356  0.49482322  0.25133740
   0.00878542  0.96113100  0.03816444
   0.10472056  0.05401032  0.15075663
   0.60539837  0.05466152  0.55529780
   0.31954139  0.81997343  0.90401319
   0.52698578  0.97224346  0.63779585
   0.29518552  0.68126583  0.80270546
   0.50344356  0.99482325  0.75133743
   0.00878542  0.46113103  0.53816444
   0.10472056  0.55401037  0.65075666
   0.10181672  0.44584356  0.94483171
   0.82026747  0.67884332  0.59690702
   0.02634444  0.52588674  0.86260831
   0.79104678  0.81243919  0.69640053
   0.00220835  0.50387996  0.74845439
   0.51174710  0.04062419  0.96148796
   0.60520273  0.94854743  0.84967279
   0.10181672  0.94584359  0.44483168
   0.82026747  0.17884332  0.09690704
   0.02634444  0.02588676  0.36260831
   0.79104678  0.31243919  0.19640053
   0.00220835  0.00387999  0.24845440
   0.51174710  0.54062422  0.46148793
   0.60520273  0.44854749  0.34967282
   0.10949221  0.43682771  0.05377400
   0.82069826  0.68060384  0.40331440
   0.02665223  0.52455423  0.13801644
   0.79419788  0.81380241  0.30378691
   0.00164874  0.50548261  0.25119060
   0.50792708  0.04693375  0.03937184
   0.60709406  0.94452908  0.15143746
   0.10949221  0.93682768  0.55377404
   0.82069826  0.18060385  0.90331443
   0.02665223  0.02455420  0.63801641
   0.79419788  0.31380244  0.80378688
   0.00164874  0.00548261  0.75119060
   0.50792708  0.54693376  0.53937182
   0.60709406  0.44452908  0.65143749
   0.60784386  0.55706112  0.94598776
   0.32797282  0.32411551  0.59784707
   0.52901733  0.47414687  0.86244714
   0.29370655  0.18668789  0.69601197
   0.50343032  0.49462021  0.74847831
   0.00594561  0.95539953  0.96050475
   0.10627011  0.05670714  0.84923778
   0.60784386  0.05706108  0.44598782
   0.32797282  0.82411551  0.09784708
   0.52901733  0.97414684  0.36244711
   0.29370655  0.68668789  0.19601192
   0.50343032  0.99462021  0.24847828
   0.00594561  0.45539956  0.46050475
   0.10627011  0.55670716  0.34923784
   0.31947000  0.16109228  0.49958147
   0.31947000  0.66109234  0.99958150
   0.81870493  0.83854596  0.49983277
   0.81870493  0.33854602 -0.00016723
   0.29342755  0.24891870  0.34569710
   0.29342755  0.74891870  0.84569712
   0.28817701  0.24691437  0.55017802
   0.28817701  0.74691436  0.05017800
BiTiFeO                                 
           1
     5.494872   -0.001527    0.005837
    -0.001511    5.488510   -0.001619
     0.042024    0.050544   41.062254
   Bi   Ti   O    Fe
  20  12  60   4
Direct configuration=     6
   0.25291633  0.24586758  0.10459511
   0.23827010  0.27382281  0.22047509
   0.25291633  0.74586758  0.60459512
   0.23827010  0.77382284  0.72047505
   0.75246695  0.74977574  0.89320729
   0.73083674  0.72721372  0.78121807
   0.75246695  0.24977574  0.39320732
   0.73083674  0.22721373  0.28121801
   0.74662956  0.75230922  0.10476230
   0.73885449  0.72857567  0.22006402
   0.74662956  0.25230925  0.60476232
   0.73885449  0.22857565  0.72006405
   0.25571853  0.24896936  0.89295452
   0.23536684  0.28018664  0.78147751
   0.25571853  0.74896938  0.39295455
   0.23536684  0.78018661  0.28147754
   0.24590848  0.24321093  0.00182154
   0.24590848  0.74321093  0.50182154
   0.74211895  0.75879563  1.00006691
   0.74211895  0.25879563  0.50006685
   0.79672727  0.75006237  0.34664118
   0.79672727  0.25006237  0.84664118
   0.79573990  0.75037289  0.65368503
   0.79573990  0.25037290  0.15368505
   0.79254678  0.75270653  0.44972226
   0.79254678  0.25270653  0.94972223
   0.29434224  0.24914067  0.65316789
   0.29434224  0.74914067  0.15316789
   0.28975489  0.24580994  0.44992981
   0.28975489  0.74580994  0.94992981
   0.79119584  0.75419552  0.54975328
   0.79119584  0.25419552  0.04975328
   0.60553196  0.55402818  0.05509992
   0.31917625  0.31962934  0.40407022
   0.52693971  0.47224084  0.13779372
   0.29647592  0.18052155  0.30243815
   0.50368364  0.49506510  0.25138267
   0.00944990  0.96184807  0.03837437
   0.10461062  0.05408465  0.15057861
   0.60553196  0.05402819  0.55509990
   0.31917625  0.81962934  0.90407022
   0.52693971  0.97224087  0.63779371
   0.29647592  0.68052152  0.80243815
   0.50368364  0.99506513  0.75138270
   0.00944990  0.46184810  0.53837436
   0.10461062  0.55408471  0.65057864
   0.10171193  0.44628199  0.94507587
   0.82009587  0.67942183  0.59691392
   0.02686555  0.52552782  0.86241243
   0.79053026  0.81130153  0.69619584
   0.00173915  0.50348509  0.74857123
   0.51235170  0.03983725  0.96145721
   0.60414632  0.94892055  0.84974904
   0.10171193  0.94628202  0.44507584
   0.82009587  0.17942183  0.09691394
   0.02686555  0.02552784  0.36241243
   0.79053026  0.31130153  0.19619584
   0.00173915  0.00348512  0.24857125
   0.51235170  0.53983728  0.46145718
   0.60414632  0.44892061  0.34974907
   0.10809035  0.43804055  0.05379725
   0.81873037  0.68134345  0.40342293
   0.02636783  0.52447517  0.13800656
   0.79378707  0.81310481  0.30356454
   0.00132937  0.50558013  0.25126240
   0.50994646  0.04553842  0.03941560
   0.60663230  0.94481003  0.15117110
   0.10809035  0.93804052  0.55379729
   0.81873037  0.18134346  0.90342295
   0.02636783  0.02447514  0.63800653
   0.79378707  0.31310484  0.80356451
   0.00132937  0.00558013  0.75126240
   0.50994646  0.54553843  0.53941557
   0.60663230  0.44481003  0.65117113
   0.60608886  0.55529152  0.94600417
   0.32713745  0.32336040  0.59762888
   0.52932775  0.47443092  0.86227365
   0.29283600  0.18741550  0.69585071
   0.50363035  0.49443991  0.74854034
   0.00729695  0.95684046  0.96060412
   0.10564582  0.05591907  0.84939096
   0.60608886  0.05529148  0.44600423
   0.32713745  0.82336040  0.09762890
   0.52932775  0.97443089  0.36227362
   0.29283600  0.68741550  0.19585067
   0.50363035  0.99443991  0.24854031
   0.00729695  0.45684049  0.46060412
   0.10564582  0.55591909  0.34939102
   0.32034204  0.16311902  0.49972389
   0.32034204  0.66311908  0.99972392
   0.81908231  0.83675639  0.49994607
   0.81908231  0.33675645 -0.00005393
   0.29290000  0.24896502  0.34567001
   0.29290000  0.74896502  0.84567004
   0.28812577  0.24736002  0.55007172
   0.28812577  0.74736001  0.05007171
BiTiFeO                                 
           1
     5.494374   -0.001687    0.005424
    -0.001669    5.487987   -0.002926
     0.039046    0.040783   40.955878
   Bi   Ti   O    Fe
  20  12  60   4
Direct configuration=     7
   0.25200826  0.24539422  0.10450361
   0.23847786  0.27327438  0.22057257
   0.25200826  0.74539422  0.60450362
   0.23847786  0.77327441  0.72057252
   0.75150580  0.74991490  0.89327508
   0.72891255  0.72892160  0.78139982
   0.75150580  0.24991490  0.39327511
   0.72891255  0.22892161  0.28139976
   0.74621385  0.75249763  0.10458622
   0.74114925  0.72932429  0.22010557
   0.74621385  0.25249765  0.60458624
   0.74114925  0.22932427  0.72010560
   0.25680244  0.24885747  0.89302631
   0.23569195  0.28125761  0.78165729
   0.25680244  0.74885750  0.39302634
   0.23569195  0.78125758  0.28165732
   0.24756674  0.24370756  0.00197359
   0.24756674  0.74370756  0.50197359
   0.74251453  0.75886530  1.00048598
   0.74251453  0.25886530  0.50048592
   0.79688166  0.74985309  0.34666550
   0.79688166  0.24985309  0.84666550
   0.79613799  0.74885635  0.65246405
   0.79613799  0.24885637  0.15246407
   0.79294691  0.75207617  0.44976591
   0.79294691  0.25207617  0.94976588
   0.29435331  0.25014601  0.65215878
   0.29435331  0.75014601  0.15215878
   0.29077306  0.24701666  0.45001975
   0.29077306  0.74701666  0.95001975
   0.79231947  0.75389782  0.55010419
   0.79231947  0.25389782  0.05010419
   0.60503467  0.55365218  0.05463026
   0.31876656  0.31906323  0.40432773
   0.52645006  0.47226795  0.13782418
   0.29837368  0.18045460  0.30232322
   0.50372529  0.49572611  0.25129240
   0.01080891  0.96233461  0.03846904
   0.10509243  0.05392607  0.15036386
   0.60503467  0.05365219  0.55463024
   0.31876656  0.81906323  0.90432773
   0.52645006  0.97226798  0.63782416
   0.29837368  0.68045457  0.80232322
   0.50372529  0.99572614  0.75129243
   0.01080891  0.46233464  0.53846904
   0.10509243  0.55392612  0.65036389
   0.10146696  0.44671718  0.94545002
   0.81982373  0.68033806  0.59650408
   0.02743642  0.52543067  0.86222413
   0.78961473  0.81144096  0.69713936
   0.00122516  0.50337218  0.74862963
   0.51344533  0.03888914  0.96149942
   0.60281299  0.94914613  0.84995892
   0.10146696  0.94671721  0.44544999
   0.81982373  0.18033806  0.09650409
   0.02743642  0.02543069  0.36222413
   0.78961473  0.31144096  0.19713936
   0.00122516  0.00337221  0.24862964
   0.51344533  0.53888916  0.46149939
   0.60281299  0.44914619  0.34995895
   0.10712171  0.44001760  0.05362374
   0.81646355  0.68243506  0.40365841
   0.02611852  0.52488204  0.13801871
   0.79326287  0.81174670  0.30350077
   0.00098787  0.50544155  0.25124056
   0.51123341  0.04301902  0.03926190
   0.60600048  0.94474317  0.15083461
   0.10712171  0.94001757  0.55362379
   0.81646355  0.18243508  0.90365844
   0.02611852  0.02488202  0.63801868
   0.79326287  0.31174673  0.80350074
   0.00098787  0.00544155  0.75124056
   0.51123341  0.54301903  0.53926187
   0.60600048  0.44474317  0.65083463
   0.60416731  0.55298150  0.94609005
   0.32607583  0.32226528  0.59719458
   0.52905914  0.47488873  0.86210975
   0.29137826  0.18687423  0.69668574
   0.50385343  0.49414933  0.74848512
   0.00913551  0.95862345  0.96079286
   0.10515932  0.05475554  0.84969661
   0.60416731  0.05298146  0.44609011
   0.32607583  0.82226528  0.09719459
   0.52905914  0.97488870  0.36210972
   0.29137826  0.68687423  0.19668569
   0.50385343  0.99414933  0.24848509
   0.00913551  0.45862348  0.46079286
   0.10515932  0.55475556  0.34969667
   0.32119116  0.16542950  0.49982617
   0.32119116  0.66542956  0.99982620
   0.81955166  0.83481498  0.49989819
   0.81955166  0.33481504 -0.00010181
   0.29258716  0.24869789  0.34546087
   0.29258716  0.74869789  0.84546090
   0.28831992  0.24761415  0.55022081
   0.28831992  0.74761413  0.05022080
BiTiFeO                                 
           1
     5.491868   -0.001640    0.005913
    -0.001624    5.485057   -0.001850
     0.042686    0.048785   40.947556
   Bi   Ti   O    Fe
  20  12  60   4
Direct configuration=     8
   0.25253636  0.24575634  0.10443593
   0.23836635  0.27363263  0.22050635
   0.25253636  0.74575634  0.60443595
   0.23836635  0.77363266  0.72050631
   0.75174482  0.74985950  0.89325257
   0.72925616  0.72867850  0.78127452
   0.75174482  0.24985950  0.39325259
   0.72925616  0.22867852  0.28127446
   0.74627432  0.75212173  0.10453778
   0.74058331  0.72891607  0.22005934
   0.74627432  0.25212176  0.60453780
   0.74058331  0.22891606  0.72005937
   0.25633611  0.24895336  0.89300370
   0.23571513  0.28088127  0.78153306
   0.25633611  0.74895339  0.39300373
   0.23571513  0.78088124  0.28153309
   0.24708347  0.24373555  0.00182531
   0.24708347  0.74373555  0.50182531
   0.74243497  0.75871519  1.00030710
   0.74243497  0.25871519  0.50030704
   0.79687966  0.74938007  0.34707479
   0.79687966  0.24938007  0.84707479
   0.79568509  0.75032274  0.65352915
   0.79568509  0.25032275  0.15352916
   0.79302616  0.75238752  0.44974225
   0.79302616  0.25238752  0.94974222
   0.29426475  0.24888206  0.65303052
   0.29426475  0.74888206  0.15303052
   0.29045937  0.24645268  0.45001649
   0.29045937  0.74645268  0.95001649
   0.79179003  0.75397081  0.54968808
   0.79179003  0.25397081  0.04968808
   0.60523727  0.55372269  0.05480740
   0.31890727  0.31928969  0.40426138
   0.52662721  0.47214292  0.13774827
   0.29801368  0.18040199  0.30225067
   0.50378106  0.49554542  0.25137615
   0.01053375  0.96232961  0.03851574
   0.10478000  0.05405304  0.15034211
   0.60523727  0.05372269  0.55480738
   0.31890727  0.81928969  0.90426138
   0.52662721  0.97214295  0.63774826
   0.29801368  0.68040196  0.80225067
   0.50378106  0.99554545  0.75137618
   0.01053375  0.46232964  0.53851574
   0.10478000  0.55405309  0.65034214
   0.10163373  0.44668809  0.94537945
   0.81988006  0.67996945  0.59679534
   0.02721448  0.52545351  0.86225993
   0.78997662  0.81038150  0.69623562
   0.00137724  0.50332252  0.74869586
   0.51314693  0.03905260  0.96152949
   0.60308190  0.94918748  0.84990798
   0.10163373  0.94668812  0.44537942
   0.81988006  0.17996945  0.09679535
   0.02721448  0.02545354  0.36225993
   0.78997662  0.31038150  0.19623562
   0.00137724  0.00332255  0.24869587
   0.51314693  0.53905262  0.46152946
   0.60308190  0.44918754  0.34990801
   0.10735201  0.43947013  0.05373556
   0.81700837  0.68211139  0.40361492
   0.02602580  0.52471931  0.13794794
   0.79331169  0.81245490  0.30319543
   0.00111651  0.50556649  0.25131203
   0.51130394  0.04373076  0.03936399
   0.60623318  0.94491650  0.15083269
   0.10735201  0.93947010  0.55373560