BiTiFeO                                 
           1
     5.474020    0.001059    0.001181
     0.001061    5.467129    0.001128
     0.008816    0.070460   40.655551
   Bi   Ti   O    Fe
  20  12  60   4
Direct configuration=     1
   0.25163469  0.24552768  0.10456018
   0.23768441  0.27533320  0.21951799
   0.25163469  0.74552768  0.60456020
   0.23768441  0.77533323  0.71951795
   0.75163466  0.75447232  0.89543980
   0.73768437  0.72466677  0.78048205
   0.75163466  0.25447232  0.39543983
   0.73768437  0.22466679  0.28048199
   0.74778056  0.75425547  0.10488448
   0.73468602  0.72707325  0.21940872
   0.74778056  0.25425550  0.60488451
   0.73468602  0.22707324  0.71940875
   0.24778058  0.24574450  0.89511549
   0.23468603  0.27292678  0.78059125
   0.24778058  0.74574453  0.39511553
   0.23468603  0.77292675  0.28059128
   0.24248166  0.24192810  0.00106251
   0.24248166  0.74192810  0.50106251
   0.74248165  0.75807190  0.99893749
   0.74248165  0.25807190  0.49893743
   0.29556838  0.25003338  0.34690401
   0.29556838  0.75003338  0.84690404
   0.79474807  0.74971396  0.34751427
   0.79474807  0.24971396  0.84751427
   0.79556835  0.74996662  0.65309596
   0.79556835  0.24996664  0.15309598
   0.79018825  0.75150693  0.45036468
   0.79018825  0.25150693  0.95036465
   0.29474810  0.25028604  0.65248573
   0.29474810  0.75028604  0.15248573
   0.79145211  0.75503856  0.54978108
   0.79145211  0.25503856  0.04978108
   0.60797232  0.55333757  0.05623510
   0.32074291  0.32244712  0.40269166
   0.52769464  0.47232899  0.13806446
   0.29197162  0.18621907  0.30358261
   0.50278539  0.49499974  0.25136027
   0.00366211  0.96418035  0.03809405
   0.10417966  0.05360783  0.15095773
   0.60797232  0.05333758  0.55623508
   0.32074291  0.82244712  0.90269166
   0.52769464  0.97232902  0.63806444
   0.29197162  0.68621904  0.80358261
   0.50278539  0.99499977  0.75136030
   0.00366211  0.46418038  0.53809404
   0.10417966  0.55360788  0.65095776
   0.10797235  0.44666240  0.94376492
   0.82074291  0.67755288  0.59730834
   0.02769462  0.52767098  0.86193556
   0.79197168  0.81378096  0.69641739
   0.00278540  0.50500023  0.74863970
   0.50366211  0.03581963  0.96190596
   0.60417968  0.94639212  0.84904224
   0.10797235  0.94666243  0.44376490
   0.82074291  0.17755288  0.09730835
   0.02769462  0.02767100  0.36193556
   0.79197168  0.31378096  0.19641739
   0.00278540  0.00500026  0.24863972
   0.50366211  0.53581965  0.46190593
   0.60417968  0.44639218  0.34904227
   0.10746492  0.42657372  0.05429961
   0.82924741  0.67528647  0.40033671
   0.02685624  0.52419931  0.13827106
   0.79467112  0.81472349  0.30391791
   0.00275614  0.50483209  0.25127208
   0.50846183  0.05460011  0.03958693
   0.60779965  0.94555801  0.15167758
   0.10746492  0.92657369  0.55429965
   0.82924741  0.17528649  0.90033674
   0.02685624  0.02419928  0.63827103
   0.79467112  0.31472352  0.80391788
   0.00275614  0.00483209  0.75127208
   0.50846183  0.55460012  0.53958690
   0.60779965  0.44555801  0.65167761
   0.60746491  0.57342631  0.94570035
   0.32924739  0.32471353  0.59966326
   0.52685618  0.47580072  0.86172897
   0.29467115  0.18527651  0.69608212
   0.50275618  0.49516791  0.74872792
   0.00846184  0.94539988  0.96041310
   0.10779966  0.05444197  0.84832239
   0.60746491  0.07342626  0.44570041
   0.32924739  0.82471353  0.09966327
   0.52685618  0.97580069  0.36172894
   0.29467115  0.68527651  0.19608207
   0.50275618  0.99516791  0.24872789
   0.00846184  0.44539991  0.46041310
   0.10779966  0.55444199  0.34832245
   0.31750971  0.15670252  0.49889919
   0.31750971  0.65670258  0.99889922
   0.81750971  0.84329742  0.50110078
   0.81750971  0.34329748  0.00110078
   0.29018825  0.24849309  0.54963535
   0.29018825  0.74849307  0.04963534
   0.29145211  0.24496144  0.45021892
   0.29145211  0.74496144  0.95021892
BiTiFeO                                 
           1
     5.502558    0.001033    0.001232
     0.001036    5.496969   -0.002275
     0.009201    0.045502   40.858826
   Bi   Ti   O    Fe
  20  12  60   4
Direct configuration=     2
   0.25179480  0.24574718  0.10435300
   0.23761958  0.27527030  0.21952419
   0.25179480  0.74574718  0.60435301
   0.23761958  0.77527033  0.71952415
   0.74919295  0.75311208  0.89562711
   0.73754066  0.72482021  0.78049629
   0.74919295  0.25311208  0.39562714
   0.73754066  0.22482022  0.28049623
   0.74737567  0.75367704  0.10464901
   0.73464043  0.72708221  0.21940609
   0.74737567  0.25367707  0.60464903
   0.73464043  0.22708220  0.71940612
   0.25021719  0.24517355  0.89536907
   0.23470267  0.27306368  0.78060763
   0.25021719  0.74517357  0.39536910
   0.23470267  0.77306365  0.28060766
   0.24521921  0.24246027  0.00111822
   0.24521921  0.74246027  0.50111822
   0.74117934  0.75959687  0.99892477
   0.74117934  0.25959687  0.49892471
   0.29538231  0.25033868  0.34734176
   0.29538231  0.75033868  0.84734179
   0.79480520  0.75060365  0.34701926
   0.79480520  0.25060365  0.84701926
   0.79553080  0.75008599  0.65308851
   0.79553080  0.25008601  0.15308852
   0.79228587  0.75366548  0.45023714
   0.79228587  0.25366548  0.95023711
   0.29470597  0.24996724  0.65257146
   0.29470597  0.74996724  0.15257146
   0.79084558  0.75400390  0.55026186
   0.79084558  0.25400390  0.05026185
   0.60446091  0.55626683  0.05609720
   0.32260822  0.32355912  0.40242720
   0.52773570  0.47232313  0.13809280
   0.29202622  0.18601875  0.30347346
   0.50276304  0.49504126  0.25135034
   0.00810456  0.96009751  0.03833436
   0.10423927  0.05350830  0.15096953
   0.60446091  0.05626683  0.55609718
   0.32260822  0.82355912  0.90242720
   0.52773570  0.97232316  0.63809278
   0.29202622  0.68601872  0.80347346
   0.50276304  0.99504129  0.75135037
   0.00810456  0.46009754  0.53833436
   0.10423927  0.55350835  0.65096956
   0.09872792  0.43808686  0.94402852
   0.82071714  0.67774986  0.59729118
   0.02669886  0.52671324  0.86183571
   0.79194970  0.81374097  0.69641983
   0.00270412  0.50491306  0.74864202
   0.51427285  0.04524976  0.96155687
   0.60518057  0.94728143  0.84900001
   0.09872792  0.93808689  0.44402849
   0.82071714  0.17774986  0.09729120
   0.02669886  0.02671326  0.36183571
   0.79194970  0.31374097  0.19641983
   0.00270412  0.00491309  0.24864204
   0.51427285  0.54524979  0.46155684
   0.60518057  0.44728149  0.34900004
   0.11140532  0.43500139  0.05426615
   0.82582976  0.67799766  0.40198701
   0.02696847  0.52425175  0.13828058
   0.79459692  0.81444774  0.30401052
   0.00265699  0.50483615  0.25126163
   0.50556680  0.04902419  0.03962443
   0.60752079  0.94549359  0.15167048
   0.11140532  0.93500136  0.55426620
   0.82582976  0.17799768  0.90198703
   0.02696847  0.02425172  0.63828055
   0.79459692  0.31444777  0.80401049
   0.00265699  0.00483616  0.75126163
   0.50556680  0.54902420  0.53962441
   0.60752079  0.44549359  0.65167051
   0.61535611  0.55897949  0.94572312
   0.32815424  0.32362072  0.59859178
   0.52802215  0.47482937  0.86175289
   0.29468953  0.18537090  0.69606140
   0.50272090  0.49511040  0.74872670
   0.00037986  0.95672499  0.96033698
   0.10656610  0.05527022  0.84833999
   0.61535611  0.05897944  0.44572318
   0.32815424  0.82362072  0.09859180
   0.52802215  0.97482934  0.36175286
   0.29468953  0.68537090  0.19606135
   0.50272090  0.99511040  0.24872667
   0.00037986  0.45672502  0.46033698
   0.10656610  0.55527024  0.34834005
   0.31885892  0.15711829  0.49997297
   0.31885892  0.65711835  0.99997300
   0.81705539  0.84034842  0.49974436
   0.81705539  0.34034848 -0.00025564
   0.28920043  0.24692989  0.54955075
   0.28920043  0.74692987  0.04955073
   0.28922371  0.24542625  0.44998379
   0.28922371  0.74542625  0.94998379
BiTiFeO                                 
           1
     5.503275    0.001026    0.001145
     0.001030    5.496740   -0.003753
     0.008576    0.034477   40.764966
   Bi   Ti   O    Fe
  20  12  60   4
Direct configuration=     3
   0.25273646  0.24591313  0.10415949
   0.23789280  0.27465763  0.21935977
   0.25273646  0.74591313  0.60415951
   0.23789280  0.77465766  0.71935972
   0.74961018  0.75299222  0.89586360
   0.73757260  0.72564551  0.78067253
   0.74961018  0.25299222  0.39586363
   0.73757260  0.22564553  0.28067247
   0.74753762  0.75305444  0.10443214
   0.73508470  0.72760491  0.21922334
   0.74753762  0.25305447  0.60443216
   0.73508470  0.22760490  0.71922337
   0.25056792  0.24539797  0.89560641
   0.23530727  0.27278172  0.78078863
   0.25056792  0.74539800  0.39560644
   0.23530727  0.77278169  0.28078866
   0.24582333  0.24235965  0.00102828
   0.24582333  0.74235965  0.50102828
   0.74128647  0.76015177  0.99893269
   0.74128647  0.26015177  0.49893263
   0.29503580  0.25026659  0.34730358
   0.29503580  0.75026659  0.84730361
   0.79525470  0.75012122  0.34745075
   0.79525470  0.25012122  0.84745075
   0.79561821  0.74992379  0.65298613
   0.79561821  0.24992381  0.15298615
   0.79307196  0.75267534  0.45026473
   0.79307196  0.25267534  0.95026470
   0.29465460  0.25017109  0.65235287
   0.29465460  0.75017109  0.15235287
   0.79085081  0.75416710  0.54992295
   0.79085081  0.25416710  0.04992295
   0.60503842  0.55521829  0.05603203
   0.32304038  0.32287389  0.40242483
   0.52756310  0.47226939  0.13809803
   0.29200327  0.18621949  0.30348147
   0.50266193  0.49510349  0.25138044
   0.00785526  0.96053918  0.03850007
   0.10422452  0.05348711  0.15100492
   0.60503842  0.05521830  0.55603201
   0.32304038  0.82287389  0.90242483
   0.52756310  0.97226942  0.63809801
   0.29200327  0.68621946  0.80348147
   0.50266193  0.99510352  0.75138047
   0.00785526  0.46053921  0.53850006
   0.10422452  0.55348717  0.65100495
   0.10131660  0.44009214  0.94411505
   0.82051934  0.67833195  0.59737165
   0.02665618  0.52680125  0.86179943
   0.79177693  0.81374884  0.69664767
   0.00247626  0.50475686  0.74861069
   0.51284925  0.04405809  0.96142968
   0.60500878  0.94719435  0.84893966
   0.10131660  0.94009217  0.44411502
   0.82051934  0.17833195  0.09737167
   0.02665618  0.02680127  0.36179943
   0.79177693  0.31374884  0.19664767
   0.00247626  0.00475689  0.24861070
   0.51284925  0.54405811  0.46142965
   0.60500878  0.44719441  0.34893969
   0.11000194  0.43569800  0.05430161
   0.82457928  0.67816454  0.40202291
   0.02686524  0.52428804  0.13829530
   0.79428802  0.81475442  0.30349030
   0.00237471  0.50485387  0.25128490
   0.50681835  0.04853554  0.03972034
   0.60715479  0.94536408  0.15168434
   0.11000194  0.93569797  0.55430165
   0.82457928  0.17816456  0.90202294
   0.02686524  0.02428801  0.63829527
   0.79428802  0.31475444  0.80349027
   0.00237471  0.00485387  0.75128490
   0.50681835  0.54853555  0.53972032
   0.60715479  0.44536408  0.65168437
   0.61251660  0.55969012  0.94561925
   0.32760546  0.32331742  0.59841936
   0.52778010  0.47488682  0.86174502
   0.29451127  0.18531505  0.69632656
   0.50258465  0.49504179  0.74870165
   0.00246106  0.95611034  0.96030773
   0.10637487  0.05530355  0.84835705
   0.61251660  0.05969008  0.44561931
   0.32760546  0.82331742  0.09841937
   0.52778010  0.97488679  0.36174499
   0.29451127  0.68531505  0.19632652
   0.50258465  0.99504179  0.24870162
   0.00246106  0.45611037  0.46030773
   0.10637487  0.55530357  0.34835711
   0.31921881  0.15819001  0.49994046
   0.31921881  0.65819007  0.99994049
   0.81719719  0.83945132  0.49992803
   0.81719719  0.33945138 -0.00007197
   0.28884812  0.24704942  0.54954509
   0.28884812  0.74704940  0.04954508
   0.28792355  0.24540709  0.45012650
   0.28792355  0.74540709  0.95012650
BiTiFeO                                 
           1
     5.488506    0.000804    0.000801
     0.000807    5.481133   -0.001620
     0.006014    0.050152   40.712778
   Bi   Ti   O    Fe
  20  12  60   4
Direct configuration=     4
   0.25317859  0.24597978  0.10403782
   0.23795029  0.27430455  0.21936337
   0.25317859  0.74597978  0.60403784
   0.23795029  0.77430458  0.71936333
   0.74911314  0.75267462  0.89602337
   0.73754718  0.72614848  0.78067189
   0.74911314  0.25267462  0.39602340
   0.73754718  0.22614850  0.28067183
   0.74730461  0.75247269  0.10427995
   0.73530474  0.72784966  0.21921931
   0.74730461  0.25247272  0.60427997
   0.73530474  0.22784965  0.71921934
   0.25101294  0.24556133  0.89575556
   0.23550391  0.27269565  0.78077620
   0.25101294  0.74556136  0.39575559
   0.23550391  0.77269562  0.28077623
   0.24677147  0.24253520  0.00097634
   0.24677147  0.74253520  0.50097634
   0.74096320  0.76064793  0.99895227
   0.74096320  0.26064793  0.49895221
   0.29482984  0.25018296  0.34711406
   0.29482984  0.75018296  0.84711409
   0.79559430  0.75031963  0.34719924
   0.79559430  0.25031963  0.84719924
   0.79575810  0.74990685  0.65317581
   0.79575810  0.24990687  0.15317583
   0.79367176  0.75239879  0.45029212
   0.79367176  0.25239879  0.95029209
   0.29458341  0.25001845  0.65253588
   0.29458341  0.75001845  0.15253588
   0.79118881  0.75429132  0.54972693
   0.79118881  0.25429132  0.04972693
   0.60559477  0.55380189  0.05588958
   0.32379213  0.32236985  0.40248713
   0.52737896  0.47227042  0.13803509
   0.29202955  0.18672787  0.30372910
   0.50262183  0.49516234  0.25137973
   0.00773539  0.96111886  0.03866411
   0.10437136  0.05346603  0.15094464
   0.60559477  0.05380190  0.55588955
   0.32379213  0.82236985  0.90248713
   0.52737896  0.97227045  0.63803508
   0.29202955  0.68672784  0.80372910
   0.50262183  0.99516236  0.75137976
   0.00773539  0.46111889  0.53866410
   0.10437136  0.55346608  0.65094467
   0.10317346  0.44164516  0.94427883
   0.82038941  0.67900191  0.59729881
   0.02653031  0.52671961  0.86184036
   0.79166379  0.81330579  0.69653283
   0.00249519  0.50469663  0.74861174
   0.51223833  0.04329653  0.96127637
   0.60503912  0.94722343  0.84897991
   0.10317346  0.94164519  0.44427880
   0.82038941  0.17900191  0.09729883
   0.02653031  0.02671963  0.36184036
   0.79166379  0.31330579  0.19653283
   0.00249519  0.00469666  0.24861175
   0.51223833  0.54329655  0.46127634
   0.60503912  0.44722349  0.34897994
   0.10827503  0.43682529  0.05430801
   0.82309497  0.67854349  0.40221592
   0.02682972  0.52438399  0.13824384
   0.79404583  0.81419894  0.30359752
   0.00236000  0.50483972  0.25128991
   0.50833950  0.04781894  0.03976845
   0.60675074  0.94525754  0.15159160
   0.10827503  0.93682526  0.55430805
   0.82309497  0.17854350  0.90221595
   0.02682972  0.02438397  0.63824381
   0.79404583  0.31419896  0.80359749
   0.00236000  0.00483972  0.75128991
   0.50833950  0.54781895  0.53976842
   0.60675074  0.44525754  0.65159163
   0.61005641  0.55895990  0.94552730
   0.32709176  0.32299944  0.59813432
   0.52764561  0.47476957  0.86182862
   0.29438330  0.18579673  0.69617702
   0.50252480  0.49510405  0.74870882
   0.00439215  0.95628926  0.96028972
   0.10609076  0.05539879  0.84850183
   0.61005641  0.05895986  0.44552736
   0.32709176  0.82299944  0.09813434
   0.52764561  0.97476954  0.36182859
   0.29438330  0.68579673  0.19617697
   0.50252480  0.99510405  0.24870879
   0.00439215  0.45628929  0.46028972
   0.10609076  0.55539881  0.34850188
   0.32000523  0.15933846  0.49993655
   0.32000523  0.65933852  0.99993658
   0.81755164  0.83833243  0.50003441
   0.81755164  0.33833249  0.00003441
   0.28839380  0.24697148  0.54956059
   0.28839380  0.74697147  0.04956057
   0.28683853  0.24537755  0.45023714
   0.28683853  0.74537755  0.95023714
BiTiFeO                                 
           1
     5.499545    0.000592    0.000843
     0.000596    5.492499   -0.002604
     0.006331    0.042950   40.713149
   Bi   Ti   O    Fe
  20  12  60   4
Direct configuration=     5
   0.25282972  0.24577825  0.10389088
   0.23791515  0.27400234  0.21937769
   0.25282972  0.74577825  0.60389089
   0.23791515  0.77400237  0.71937764
   0.74759124  0.75231242  0.89616038
   0.73757680  0.72660806  0.78064228
   0.74759124  0.25231242  0.39616041
   0.73757680  0.22660807  0.28064222
   0.74694110  0.75231135  0.10409252
   0.73541544  0.72797333  0.21924208
   0.74694110  0.25231138  0.60409254
   0.73541544  0.22797331  0.71924211
   0.25180088  0.24553617  0.89585816
   0.23551504  0.27257534  0.78072098
   0.25180088  0.74553620  0.39585819
   0.23551504  0.77257531  0.28072101
   0.24823543  0.24296829  0.00096584
   0.24823543  0.74296829  0.50096584
   0.74021089  0.76094567  0.99902279
   0.74021089  0.26094567  0.49902273
   0.29495955  0.25107167  0.34778607
   0.29495955  0.75107167  0.84778609
   0.79553653  0.75010379  0.34730852
   0.79553653  0.25010379  0.84730852
   0.79592168  0.74914302  0.65270797
   0.79592168  0.24914304  0.15270799
   0.79344660  0.75317533  0.45031648
   0.79344660  0.25317533  0.95031645
   0.29447265  0.25029705  0.65223280
   0.29447265  0.75029705  0.15223280
   0.79196533  0.75383023  0.54980272
   0.79196533  0.25383023  0.04980272
   0.60509683  0.55314408  0.05568096
   0.32470363  0.32236065  0.40251535
   0.52733798  0.47232040  0.13801524
   0.29196897  0.18631066  0.30332367
   0.50260734  0.49527340  0.25137634
   0.00833152  0.96131555  0.03876935
   0.10453016  0.05347583  0.15091832
   0.60509683  0.05314409  0.55568093
   0.32470363  0.82236065  0.90251535
   0.52733798  0.97232043  0.63801522
   0.29196897  0.68631063  0.80332367
   0.50260734  0.99527343  0.75137637
   0.00833152  0.46131558  0.53876934
   0.10453016  0.55347589  0.65091835
   0.10269555  0.44147933  0.94451989
   0.82040467  0.67939543  0.59721877
   0.02638636  0.52639343  0.86185951
   0.79149307  0.81347378  0.69685206
   0.00267561  0.50473581  0.74862631
   0.51334143  0.04345617  0.96114203
   0.60519129  0.94745379  0.84898258
   0.10269555  0.94147936  0.44451986
   0.82040467  0.17939543  0.09721879
   0.02638636  0.02639345  0.36185951
   0.79149307  0.31347378  0.19685206
   0.00267561  0.00473584  0.24862633
   0.51334143  0.54345619  0.46114200
   0.60519129  0.44745385  0.34898261
   0.10730443  0.43863745  0.05429676
   0.82177260  0.67923251  0.40248151
   0.02685916  0.52450856  0.13822931
   0.79376970  0.81403040  0.30343978
   0.00252235  0.50478148  0.25130216
   0.50923649  0.04642366  0.03970313
   0.60637766  0.94541135  0.15152212
   0.10730443  0.93863742  0.55429680
   0.82177260  0.17923253  0.90248154
   0.02685916  0.02450853  0.63822928
   0.79376970  0.31403043  0.80343975
   0.00252235  0.00478149  0.75130216
   0.50923649  0.54642367  0.53970311
   0.60637766  0.44541135  0.65152215
   0.60923611  0.55615045  0.94549082
   0.32673733  0.32263316  0.59787119
   0.52770595  0.47437021  0.86189871
   0.29421441  0.18571537  0.69639706
   0.50247986  0.49531715  0.74872912
   0.00515183  0.95797499  0.96030724
   0.10571855  0.05542634  0.84863212
   0.60923611  0.05615040  0.44549088
   0.32673733  0.82263316  0.09787121
   0.52770595  0.97437018  0.36189868
   0.29421441  0.68571537  0.19639701
   0.50247986  0.99531715  0.24872909
   0.00515183  0.45797502  0.46030724
   0.10571855  0.55542637  0.34863217
   0.32110639  0.16034324  0.50001794
   0.32110639  0.66034330  1.00001797
   0.81802744  0.83730925  0.49991450
   0.81802744  0.33730931 -0.00008550
   0.28783826  0.24686417  0.54956819
   0.28783826  0.74686415  0.04956818
   0.28684273  0.24564944  0.45026973
   0.28684273  0.74564944  0.95026973
BiTiFeO                                 
           1
     5.497067    0.000356    0.000849
     0.000361    5.489430   -0.003218
     0.006381    0.038361   40.686697
   Bi   Ti   O    Fe
  20  12  60   4
Direct configuration=     6
   0.25306876  0.24590842  0.10382742
   0.23796464  0.27374058  0.21934882
   0.25306876  0.74590842  0.60382743
   0.23796464  0.77374061  0.71934877
   0.74756769  0.75214270  0.89624076
   0.73751464  0.72700237  0.78068126
   0.74756769  0.25214270  0.39624079
   0.73751464  0.22700239  0.28068120
   0.74697839  0.75195450  0.10399820
   0.73562810  0.72808879  0.21920965
   0.74697839  0.25195453  0.60399822
   0.73562810  0.22808877  0.71920968
   0.25206315  0.24582044  0.89592998
   0.23585450  0.27260101  0.78076256
   0.25206315  0.74582047  0.39593001
   0.23585450  0.77260098  0.28076259
   0.24880687  0.24310664  0.00090826
   0.24880687  0.74310664  0.50090826
   0.74017805  0.76110319  0.99906419
   0.74017805  0.26110319  0.49906413
   0.29471029  0.25055096  0.34743313
   0.29471029  0.75055096  0.84743315
   0.79563977  0.75036378  0.34716666
   0.79563977  0.25036378  0.84716666
   0.79582782  0.74954609  0.65301414
   0.79582782  0.24954611  0.15301415
   0.79377936  0.75304974  0.45033941
   0.79377936  0.25304974  0.95033938
   0.29444630  0.24986058  0.65245539
   0.29444630  0.74986058  0.15245539
   0.79214859  0.75372614  0.54971184
   0.79214859  0.25372614  0.04971184
   0.60480650  0.55281043  0.05558566
   0.32499872  0.32212614  0.40251304
   0.52722572  0.47230720  0.13794011
   0.29199315  0.18696044  0.30365606
   0.50262951  0.49539809  0.25137663
   0.00858369  0.96146459  0.03883539
   0.10461194  0.05359923  0.15084528
   0.60480650  0.05281044  0.55558564
   0.32499872  0.82212614  0.90251304
   0.52722572  0.97230723  0.63794009
   0.29199315  0.68696041  0.80365606
   0.50262951  0.99539812  0.75137666
   0.00858369  0.46146462  0.53883538
   0.10461194  0.55359928  0.65084531
   0.10302007  0.44191156  0.94463181
   0.82033097  0.67962569  0.59724226
   0.02634348  0.52638277  0.86192547
   0.79143050  0.81283294  0.69659584
   0.00263663  0.50466239  0.74861839
   0.51324863  0.04296752  0.96109156
   0.60513079  0.94731245  0.84903336
   0.10302007  0.94191159  0.44463178
   0.82033097  0.17962569  0.09724227
   0.02634348  0.02638279  0.36192547
   0.79143050  0.31283294  0.19659584
   0.00263663  0.00466242  0.24861840
   0.51324863  0.54296755  0.46109153
   0.60513079  0.44731251  0.34903339
   0.10675852  0.43933980  0.05430016
   0.82109526  0.67948996  0.40254206
   0.02672400  0.52455217  0.13815664
   0.79354127  0.81354708  0.30351035
   0.00247135  0.50477599  0.25130183
   0.50975714  0.04572444  0.03968561
   0.60623637  0.94537134  0.15141833
   0.10675852  0.93933977  0.55430020
   0.82109526  0.17948998  0.90254209
   0.02672400  0.02455214  0.63815661
   0.79354127  0.31354711  0.80351032
   0.00247135  0.00477599  0.75130183
   0.50975714  0.54572445  0.53968558
   0.60623637  0.44537134  0.65141836
   0.60811984  0.55568558  0.94547140
   0.32646055  0.32242355  0.59777576
   0.52750592  0.47429147  0.86198224
   0.29406891  0.18623929  0.69622632
   0.50249551  0.49532638  0.74872026
   0.00594389  0.95831553  0.96032504
   0.10569610  0.05542768  0.84875596
   0.60811984  0.05568554  0.44547146
   0.32646055  0.82242355  0.09777578
   0.52750592  0.97429144  0.36198221
   0.29406891  0.68623929  0.19622627
   0.50249551  0.99532638  0.24872023
   0.00594389  0.45831556  0.46032504
   0.10569610  0.55542770  0.34875602
   0.32152108  0.16091321  0.50003082
   0.32152108  0.66091327  1.00003085
   0.81819889  0.83687526  0.49993712
   0.81819889  0.33687532 -0.00006288
   0.28768639  0.24696239  0.54954956
   0.28768639  0.74696238  0.04954955
   0.28655148  0.24581135  0.45032798
   0.28655148  0.74581135  0.95032798
BiTiFeO                                 
           1
     5.498909    0.000302    0.000696
     0.000306    5.491167   -0.002815
     0.005243    0.041364   40.690796
   Bi   Ti   O    Fe
  20  12  60   4
Direct configuration=     7
   0.25297518  0.24580897  0.10370006
   0.23793252  0.27336356  0.21935031
   0.25297518  0.74580897  0.60370007
   0.23793252  0.77336359  0.71935026
   0.74670378  0.75210587  0.89643074
   0.73741291  0.72757270  0.78069394
   0.74670378  0.25210587  0.39643077
   0.73741291  0.22757271  0.28069388
   0.74648048  0.75151983  0.10378048
   0.73591520  0.72826154  0.21921767
   0.74648048  0.25151986  0.60378050
   0.73591520  0.22826153  0.71921770
   0.25233374  0.24607079  0.89610451
   0.23620687  0.27272777  0.78076329
   0.25233374  0.74607082  0.39610454
   0.23620687  0.77272774  0.28076332
   0.25005334  0.24364456  0.00077360
   0.25005334  0.74364456  0.50077360
   0.73994259  0.76127966  0.99918730
   0.73994259  0.26127966  0.49918724
   0.29439413  0.25057758  0.34749522
   0.29439413  0.75057758  0.84749525
   0.79577479  0.75020324  0.34725991
   0.79577479  0.25020324  0.84725991
   0.79581323  0.74924278  0.65286420
   0.79581323  0.24924280  0.15286421
   0.79430757  0.75285475  0.45041378
   0.79430757  0.25285475  0.95041375
   0.29437037  0.24989869  0.65232312
   0.29437037  0.74989869  0.15232312
   0.79252206  0.75356455  0.54960164
   0.79252206  0.25356455  0.04960164
   0.60436416  0.55159729  0.05534488
   0.32586088  0.32188647  0.40252417
   0.52710345  0.47235124  0.13783534
   0.29200922  0.18742481  0.30379532
   0.50268723  0.49561497  0.25136307
   0.00912253  0.96211003  0.03895409
   0.10483684  0.05367366  0.15074238
   0.60436416  0.05159730  0.55534485
   0.32586088  0.82188647  0.90252417
   0.52710345  0.97235127  0.63783533
   0.29200922  0.68742478  0.80379532
   0.50268723  0.99561500  0.75136310
   0.00912253  0.46211006  0.53895408
   0.10483684  0.55367371  0.65074241
   0.10330307  0.44269128  0.94489474
   0.82029832  0.67998333  0.59721416
   0.02628228  0.52617577  0.86201435
   0.79123958  0.81237100  0.69660490
   0.00271373  0.50462492  0.74861952
   0.51361616  0.04202401  0.96101099
   0.60513735  0.94728217  0.84908765
   0.10330307  0.94269131  0.44489471
   0.82029832  0.17998333  0.09721417
   0.02628228  0.02617579  0.36201435
   0.79123958  0.31237100  0.19660490
   0.00271373  0.00462495  0.24861954
   0.51361616  0.54202403  0.46101096
   0.60513735  0.44728223  0.34908768
   0.10530124  0.44069735  0.05430470
   0.81979464  0.67996617  0.40265040
   0.02655598  0.52468018  0.13805749
   0.79306551  0.81296815  0.30345191
   0.00258836  0.50468479  0.25129335
   0.51135109  0.04436046  0.03959079
   0.60588876  0.94542768  0.15123451
   0.10530124  0.94069732  0.55430474
   0.81979464  0.17996618  0.90265043
   0.02655598  0.02468016  0.63805746
   0.79306551  0.31296818  0.80345188
   0.00258836  0.00468480  0.75129335
   0.51135109  0.54436047  0.53959077
   0.60588876  0.44542768  0.65123453
   0.60602424  0.55417679  0.94542911
   0.32611229  0.32215206  0.59760681
   0.52728650  0.47399192  0.86210572
   0.29376136  0.18662950  0.69626112
   0.50260787  0.49553252  0.74871241
   0.00756508  0.95938301  0.96038944
   0.10546422  0.05536161  0.84898697
   0.60602424  0.05417674  0.44542917
   0.32611229  0.82215206  0.09760683
   0.52728650  0.97399189  0.36210569
   0.29376136  0.68662950  0.19626107
   0.50260787  0.99553252  0.24871238
   0.00756508  0.45938304  0.46038944
   0.10546422  0.55536163  0.34898703
   0.32266956  0.16199515  0.50003972
   0.32266956  0.66199521  1.00003975
   0.81874050  0.83601543  0.49997582
   0.81874050  0.33601549 -0.00002418
   0.28742598  0.24718164  0.54951070
   0.28742598  0.74718162  0.04951069
   0.28608293  0.24628761  0.45043363
   0.28608293  0.74628761  0.95043363
BiTiFeO                                 
           1
     5.499425    0.000094    0.000482
     0.000099    5.491253   -0.002954
     0.003660    0.040333   40.687063
   Bi   Ti   O    Fe
  20  12  60   4
Direct configuration=     8
   0.25287778  0.24583762  0.10366626
   0.23793455  0.27331260  0.21932460
   0.25287778  0.74583762  0.60366627
   0.23793455  0.77331263  0.71932456
   0.74640552  0.75206015  0.89646759
   0.73746180  0.72769707  0.78070656
   0.74640552  0.25206015  0.39646762
   0.73746180  0.22769709  0.28070650
   0.74642044  0.75140406  0.10371807
   0.73601665  0.72826395  0.21920269
   0.74642044  0.25140409  0.60371809
   0.73601665  0.22826393  0.71920272
   0.25249317  0.24617719  0.89613542
   0.23626160  0.27272255  0.78076571
   0.25249317  0.74617721  0.39613545
   0.23626160  0.77272252  0.28076574
   0.25040117  0.24384521  0.00072772
   0.25040117  0.74384521  0.50072772
   0.73992664  0.76126681  0.99923622
   0.73992664  0.26126681  0.49923616
   0.29438852  0.25065721  0.34761042
   0.29438852  0.75065721  0.84761045
   0.79569795  0.75024902  0.34723023
   0.79569795  0.25024902  0.84723023
   0.79578533  0.74927744  0.65287064
   0.79578533  0.24927745  0.15287065
   0.79421830  0.75299405  0.45041749
   0.79421830  0.25299405  0.95041746
   0.29430517  0.24975861  0.65236499
   0.29430517  0.74975861  0.15236499
   0.79276330  0.75346824  0.54960054
   0.79276330  0.25346824  0.04960054
   0.60400225  0.55142187  0.05527114
   0.32602391  0.32187749  0.40254883
   0.52704815  0.47236100  0.13779014
   0.29197734  0.18747357  0.30375475
   0.50267772  0.49567362  0.25136648
   0.00942675  0.96222780  0.03897372
   0.10489087  0.05374634  0.15069878
   0.60400225  0.05142188  0.55527111
   0.32602391  0.82187749  0.90254883
   0.52704815  0.97236103  0.63779012
   0.29197734  0.68747354  0.80375475
   0.50267772  0.99567365  0.75136651
   0.00942675  0.46222783  0.53897371
   0.10489087  0.55374640  0.65069881
   0.10311019  0.44279117  0.94498248
   0.82026406  0.68002828  0.59720057
   0.02623240  0.52610282  0.86205487
   0.79118384  0.81212991  0.69654408
   0.00275446  0.50463477  0.74863146
   0.51389055  0.04178225  0.96101062
   0.60516124  0.94721032  0.84911374
   0.10311019  0.94279120  0.44498245
   0.82026406  0.18002828  0.09720058
   0.02623240  0.02610284  0.36205487
   0.79118384  0.31212991  0.19654408
   0.00275446  0.00463480  0.24863147
   0.51389055  0.54178228  0.46101059
   0.60516124  0.44721038  0.34911377
   0.10503909  0.44115988  0.05430174
   0.81951657  0.68012975  0.40269518
   0.02648486  0.52474195  0.13801144
   0.79293434  0.81271812  0.30350123
   0.00265129  0.50466038  0.25130043
   0.51168562  0.04382540  0.03954131
   0.60582622  0.94542374  0.15116185
   0.10503909  0.94115985  0.55430178