       N       E                     dE             d eps       ncg     rms          rms(c)
DAV:   1     0.111138907757E+05    0.11114E+05   -0.39397E+05 43044   0.125E+03
DAV:   2     0.104565099776E+04   -0.10068E+05   -0.92706E+04 44340   0.350E+02
DAV:   3    -0.142508962244E+04   -0.24707E+04   -0.23913E+04 48300   0.181E+02
DAV:   4    -0.164745069365E+04   -0.22236E+03   -0.21897E+03 64836   0.607E+01
DAV:   5    -0.165591126506E+04   -0.84606E+01   -0.83429E+01 67500   0.137E+01
DAV:   6    -0.165629735520E+04   -0.38609E+00   -0.38259E+00 68064   0.251E+00
DAV:   7    -0.165632010675E+04   -0.22752E-01   -0.22646E-01 68304   0.613E-01
DAV:   8    -0.165632172707E+04   -0.16203E-02   -0.16164E-02 63504   0.141E-01
DAV:   9    -0.165632185367E+04   -0.12660E-03   -0.12640E-03 44064   0.407E-02
DAV:  10    -0.165632186473E+04   -0.11064E-04   -0.11031E-04 36120   0.155E-02
DAV:  11    -0.165632186710E+04   -0.23720E-05   -0.23580E-05 33888   0.991E-03
DAV:  12    -0.165632186835E+04   -0.12507E-05   -0.12425E-05 32820   0.713E-03    0.166E+02
DAV:  13    -0.122280279430E+04    0.43352E+03   -0.25341E+03 63960   0.825E+01    0.105E+02
DAV:  14    -0.125891913769E+04   -0.36116E+02   -0.69165E+02 68532   0.514E+01    0.714E+01
DAV:  15    -0.125708388243E+04    0.18353E+01   -0.93716E+01 62232   0.223E+01    0.458E+01
DAV:  16    -0.125876168471E+04   -0.16778E+01   -0.65735E+01 68028   0.222E+01    0.375E+01
DAV:  17    -0.125709965993E+04    0.16620E+01   -0.25674E+01 63924   0.898E+00    0.154E+01
DAV:  18    -0.125622000784E+04    0.87965E+00   -0.93926E+00 65904   0.780E+00    0.723E+00
DAV:  19    -0.125592384846E+04    0.29616E+00   -0.36253E+00 64356   0.368E+00    0.455E+00
DAV:  20    -0.125598185139E+04   -0.58003E-01   -0.44889E-01 60684   0.144E+00    0.246E+00
DAV:  21    -0.125598748884E+04   -0.56374E-02   -0.12510E-01 62664   0.766E-01    0.106E+00
DAV:  22    -0.125599734940E+04   -0.98606E-02   -0.49286E-02 62412   0.439E-01    0.596E-01
DAV:  23    -0.125599775820E+04   -0.40880E-03   -0.14698E-02 59736   0.267E-01    0.360E-01
DAV:  24    -0.125599765043E+04    0.10777E-03   -0.58033E-03 61212   0.123E-01    0.237E-01
DAV:  25    -0.125599756413E+04    0.86291E-04   -0.16613E-03 62160   0.736E-02    0.127E-01
DAV:  26    -0.125599756399E+04    0.14975E-06   -0.42372E-04 43464   0.451E-02
   1 F= -.12559976E+04 E0= -.12559976E+04  d E =-.125600E+04  mag=    39.9316
       N       E                     dE             d eps       ncg     rms          rms(c)
DAV:   1    -0.125600646575E+04   -0.89016E-02   -0.67526E-01 44244   0.122E+00    0.629E-01
DAV:   2    -0.125600319673E+04    0.32690E-02   -0.24196E-02 60972   0.285E-01    0.463E-01
DAV:   3    -0.125600198920E+04    0.12075E-02   -0.37252E-03 62808   0.133E-01    0.276E-01
DAV:   4    -0.125600152375E+04    0.46545E-03   -0.27947E-03 61224   0.814E-02    0.131E-01
DAV:   5    -0.125600138987E+04    0.13387E-03   -0.69068E-04 49116   0.486E-02    0.512E-02
DAV:   6    -0.125600140688E+04   -0.17009E-04   -0.34776E-04 33588   0.324E-02
   2 F= -.12560014E+04 E0= -.12560014E+04  d E =-.384290E-02  mag=    39.9456
       N       E                     dE             d eps       ncg     rms          rms(c)
DAV:   1    -0.125600298138E+04   -0.15915E-02   -0.61037E-01 43800   0.108E+00    0.486E-01
DAV:   2    -0.125600177600E+04    0.12054E-02   -0.26598E-02 54804   0.305E-01    0.385E-01
DAV:   3    -0.125600171106E+04    0.64947E-04   -0.48425E-03 62040   0.129E-01    0.255E-01
DAV:   4    -0.125600143402E+04    0.27704E-03   -0.15523E-03 57528   0.629E-02    0.153E-01
DAV:   5    -0.125600128497E+04    0.14904E-03   -0.23825E-04 36384   0.487E-02    0.766E-02
DAV:   6    -0.125600128651E+04   -0.15330E-05   -0.40520E-04 43032   0.355E-02
   3 F= -.12560013E+04 E0= -.12560013E+04  d E =0.120376E-03  mag=    39.9568
       N       E                     dE             d eps       ncg     rms          rms(c)
DAV:   1    -0.125600369390E+04   -0.24089E-02   -0.22169E-01 43776   0.657E-01    0.259E-01
DAV:   2    -0.125600408333E+04   -0.38943E-03   -0.12724E-02 59160   0.207E-01    0.328E-01
DAV:   3    -0.125600389979E+04    0.18353E-03   -0.16613E-03 54360   0.637E-02    0.242E-01
DAV:   4    -0.125600368997E+04    0.20983E-03   -0.16434E-03 51264   0.583E-02    0.174E-01
DAV:   5    -0.125600364668E+04    0.43292E-04   -0.47673E-04 47976   0.432E-02
   4 F= -.12560036E+04 E0= -.12560036E+04  d E =-.236017E-02  mag=    39.9645
       N       E                     dE             d eps       ncg     rms          rms(c)
DAV:   1    -0.125600473040E+04   -0.10404E-02   -0.10089E-01 45096   0.473E-01    0.257E-01
DAV:   2    -0.125600420053E+04    0.52986E-03   -0.79554E-03 63360   0.173E-01    0.249E-01
DAV:   3    -0.125600404817E+04    0.15237E-03   -0.13235E-03 61488   0.646E-02    0.107E-01
DAV:   4    -0.125600400978E+04    0.38388E-04   -0.10244E-04 29892   0.285E-02
   5 F= -.12560040E+04 E0= -.12560040E+04  d E =-.363105E-03  mag=    39.9692
       N       E                     dE             d eps       ncg     rms          rms(c)
DAV:   1    -0.125600420020E+04   -0.15203E-03   -0.15630E-02 43824   0.176E-01    0.613E-02
DAV:   2    -0.125600421482E+04   -0.14625E-04   -0.58105E-04 48912   0.456E-02
   6 F= -.12560042E+04 E0= -.12560042E+04  d E =-.205044E-03  mag=    39.9710
       N       E                     dE             d eps       ncg     rms          rms(c)
DAV:   1    -0.125600417666E+04    0.23543E-04   -0.20885E-01 43680   0.628E-01    0.269E-01
DAV:   2    -0.125600440811E+04   -0.23146E-03   -0.74340E-03 54408   0.153E-01    0.181E-01
DAV:   3    -0.125600447526E+04   -0.67146E-04   -0.13711E-03 60720   0.652E-02    0.996E-02
DAV:   4    -0.125600441199E+04    0.63267E-04   -0.27878E-04 37992   0.309E-02
   7 F= -.12560044E+04 E0= -.12560044E+04  d E =-.197167E-03  mag=    39.9751
       N       E                     dE             d eps       ncg     rms          rms(c)
DAV:   1    -0.125600486503E+04   -0.38978E-03   -0.12242E-01 43716   0.491E-01    0.154E-01
DAV:   2    -0.125600510310E+04   -0.23807E-03   -0.41798E-03 58392   0.113E-01    0.136E-01
DAV:   3    -0.125600507230E+04    0.30806E-04   -0.30298E-04 36960   0.394E-02
   8 F= -.12560051E+04 E0= -.12560051E+04  d E =-.660307E-03  mag=    39.9771
       N       E                     dE             d eps       ncg     rms          rms(c)
DAV:   1    -0.125600512752E+04   -0.24412E-04   -0.23922E-01 43632   0.693E-01    0.260E-01
DAV:   2    -0.125600538532E+04   -0.25780E-03   -0.11833E-02 58800   0.217E-01    0.318E-01
DAV:   3    -0.125600522699E+04    0.15833E-03   -0.16712E-03 57828   0.693E-02    0.198E-01
DAV:   4    -0.125600510087E+04    0.12612E-03   -0.99966E-04 50568   0.486E-02    0.130E-01
DAV:   5    -0.125600505249E+04    0.48381E-04   -0.20561E-04 34956   0.369E-02
   9 F= -.12560051E+04 E0= -.12560051E+04  d E =0.198116E-04  mag=    39.9811
       N       E                     dE             d eps       ncg     rms          rms(c)
DAV:   1    -0.125600569565E+04   -0.59478E-03   -0.63839E-02 43656   0.343E-01    0.152E-01
DAV:   2    -0.125600574114E+04   -0.45495E-04   -0.38622E-03 54660   0.133E-01    0.198E-01
DAV:   3    -0.125600569518E+04    0.45960E-04   -0.64128E-04 46812   0.412E-02
  10 F= -.12560057E+04 E0= -.12560057E+04  d E =-.642695E-03  mag=    39.9827
       N       E                     dE             d eps       ncg     rms          rms(c)
DAV:   1    -0.125600623584E+04   -0.49470E-03   -0.98034E-02 44088   0.456E-01    0.238E-01
DAV:   2    -0.125600590553E+04    0.33031E-03   -0.72147E-03 63516   0.166E-01    0.218E-01
DAV:   3    -0.125600571983E+04    0.18570E-03   -0.13031E-03 61596   0.695E-02    0.922E-02
DAV:   4    -0.125600567537E+04    0.44456E-04   -0.18598E-04 33036   0.266E-02
  11 F= -.12560057E+04 E0= -.12560057E+04  d E =0.198079E-04  mag=    39.9850
       N       E                     dE             d eps       ncg     rms          rms(c)
DAV:   1    -0.125600593909E+04   -0.21926E-03   -0.98653E-03 44160   0.141E-01    0.900E-02
DAV:   2    -0.125600586893E+04    0.70155E-04   -0.81268E-04 53112   0.570E-02
  12 F= -.12560059E+04 E0= -.12560059E+04  d E =-.193559E-03  mag=    39.9859
       N       E                     dE             d eps       ncg     rms          rms(c)
DAV:   1    -0.125600606525E+04   -0.12616E-03   -0.26672E-02 44352   0.234E-01    0.121E-01
DAV:   2    -0.125600605185E+04    0.13398E-04   -0.18707E-03 57804   0.791E-02    0.123E-01
DAV:   3    -0.125600600579E+04    0.46059E-04   -0.20093E-04 33732   0.306E-02
  13 F= -.12560060E+04 E0= -.12560060E+04  d E =-.136857E-03  mag=    39.9873
       N       E                     dE             d eps       ncg     rms          rms(c)
DAV:   1    -0.125600621455E+04   -0.16271E-03   -0.65554E-02 43908   0.365E-01    0.156E-01
DAV:   2    -0.125600615042E+04    0.64137E-04   -0.30413E-03 61224   0.998E-02    0.141E-01
DAV:   3    -0.125600610816E+04    0.42260E-04   -0.29552E-04 39288   0.386E-02
  14 F= -.12560061E+04 E0= -.12560061E+04  d E =-.102367E-03  mag=    39.9885
       N       E                     dE             d eps       ncg     rms          rms(c)
DAV:   1    -0.125600624154E+04   -0.91124E-04   -0.11110E-02 43632   0.147E-01    0.534E-02
DAV:   2    -0.125600627435E+04   -0.32811E-04   -0.52604E-04 42996   0.383E-02
  15 F= -.12560063E+04 E0= -.12560063E+04  d E =-.166195E-03  mag=    39.9891
       N       E                     dE             d eps       ncg     rms          rms(c)
DAV:   1    -0.125600622753E+04    0.14011E-04   -0.20634E-03 43788   0.644E-02    0.361E-02
DAV:   2    -0.125600622167E+04    0.58609E-05   -0.11603E-04 23952   0.200E-02
  16 F= -.12560062E+04 E0= -.12560062E+04  d E =0.526828E-04  mag=    39.9897
       N       E                     dE             d eps       ncg     rms          rms(c)
DAV:   1    -0.125600648237E+04   -0.25484E-03   -0.74997E-02 43488   0.386E-01    0.121E-01
DAV:   2    -0.125600649299E+04   -0.10620E-04   -0.27972E-03 53892   0.874E-02    0.833E-02
DAV:   3    -0.125600647642E+04    0.16574E-04   -0.21299E-04 32508   0.317E-02
  17 F= -.12560065E+04 E0= -.12560065E+04  d E =-.254749E-03  mag=    39.9907
       N       E                     dE             d eps       ncg     rms          rms(c)
DAV:   1    -0.125600655919E+04   -0.66200E-04   -0.19001E-03 45408   0.657E-02    0.594E-02
DAV:   2    -0.125600652116E+04    0.38037E-04   -0.33740E-04 36828   0.334E-02
  18 F= -.12560065E+04 E0= -.12560065E+04  d E =-.447375E-04  mag=    39.9912
       N       E                     dE             d eps       ncg     rms          rms(c)
DAV:   1    -0.125600662812E+04   -0.68925E-04   -0.59960E-02 43416   0.342E-01    0.114E-01
DAV:   2    -0.125600671019E+04   -0.82068E-04   -0.20695E-03 54348   0.765E-02    0.827E-02
DAV:   3    -0.125600669521E+04    0.14975E-04   -0.15012E-04 28704   0.272E-02
  19 F= -.12560067E+04 E0= -.12560067E+04  d E =-.174055E-03  mag=    39.9920
       N       E                     dE             d eps       ncg     rms          rms(c)
DAV:   1    -0.125600682658E+04   -0.11639E-03   -0.17340E-02 43536   0.183E-01    0.440E-02
DAV:   2    -0.125600687385E+04   -0.47272E-04   -0.71462E-04 43716   0.429E-02
  20 F= -.12560069E+04 E0= -.12560069E+04  d E =-.178638E-03  mag=    39.9924
       N       E                     dE             d eps       ncg     rms          rms(c)
DAV:   1    -0.125600703807E+04   -0.21149E-03   -0.27462E-02 43560   0.234E-01    0.900E-02
DAV:   2    -0.125600702914E+04    0.89309E-05   -0.97537E-04 50484   0.533E-02
  21 F= -.12560070E+04 E0= -.12560070E+04  d E =-.155292E-03  mag=    39.9929
       N       E                     dE             d eps       ncg     rms          rms(c)
DAV:   1    -0.125600705948E+04   -0.21407E-04   -0.20800E-02 43584   0.196E-01    0.747E-02
DAV:   2    -0.125600715165E+04   -0.92175E-04   -0.55057E-04 43212   0.384E-02
  22 F= -.12560072E+04 E0= -.12560072E+04  d E =-.122513E-03  mag=    39.9933
       N       E                     dE             d eps       ncg     rms          rms(c)
DAV:   1    -0.125600720054E+04   -0.14106E-03   -0.10124E-02 43608   0.135E-01    0.653E-02
DAV:   2    -0.125600723595E+04   -0.35413E-04   -0.26308E-04 29628   0.284E-02
  23 F= -.12560072E+04 E0= -.12560072E+04  d E =-.843011E-04  mag=    39.9937
       N       E                     dE             d eps       ncg     rms          rms(c)
DAV:   1    -0.125600728054E+04   -0.79994E-04   -0.65637E-03 43560   0.110E-01    0.564E-02
DAV:   2    -0.125600729740E+04   -0.16862E-04   -0.18761E-04 25656   0.244E-02
  24 F= -.12560073E+04 E0= -.12560073E+04  d E =-.614429E-04  mag=    39.9941
       N       E                     dE             d eps       ncg     rms          rms(c)
DAV:   1    -0.125600736403E+04   -0.83493E-04   -0.45329E-02 43392   0.297E-01    0.541E-02
DAV:   2    -0.125600749670E+04   -0.13268E-03   -0.14363E-03 53604   0.610E-02    0.543E-02
DAV:   3    -0.125600748991E+04    0.67987E-05   -0.52032E-05 23208   0.162E-02
  25 F= -.12560075E+04 E0= -.12560075E+04  d E =-.192509E-03  mag=    39.9945
       N       E                     dE             d eps       ncg     rms          rms(c)
DAV:   1    -0.125600752566E+04   -0.28957E-04   -0.60421E-04 37584   0.364E-02    0.253E-02
DAV:   2    -0.125600751982E+04    0.58415E-05   -0.47032E-05 22908   0.145E-02
  26 F= -.12560075E+04 E0= -.12560075E+04  d E =-.299140E-04  mag=    39.9948
       N       E                     dE             d eps       ncg     rms          rms(c)
DAV:   1    -0.125600750702E+04    0.18639E-04   -0.12500E-04 22884   0.182E-02    0.140E-02
DAV:   2    -0.125600750828E+04   -0.12539E-05   -0.21057E-05 22656   0.912E-03
  27 F= -.12560075E+04 E0= -.12560075E+04  d E =0.115440E-04  mag=    39.9951
       N       E                     dE             d eps       ncg     rms          rms(c)
DAV:   1    -0.125600772128E+04   -0.21426E-03   -0.71452E-02 43368   0.377E-01    0.972E-02
DAV:   2    -0.125600778875E+04   -0.67467E-04   -0.24309E-03 57324   0.779E-02    0.756E-02
DAV:   3    -0.125600776933E+04    0.19420E-04   -0.16811E-04 30540   0.291E-02
  28 F= -.12560078E+04 E0= -.12560078E+04  d E =-.261052E-03  mag=    39.9956
       N       E                     dE             d eps       ncg     rms          rms(c)
DAV:   1    -0.125600786453E+04   -0.75786E-04   -0.76463E-02 43296   0.385E-01    0.998E-02
DAV:   2    -0.125600801479E+04   -0.15026E-03   -0.22665E-03 54288   0.738E-02    0.724E-02
DAV:   3    -0.125600800130E+04    0.13490E-04   -0.10532E-04 27756   0.245E-02
  29 F= -.12560080E+04 E0= -.12560080E+04  d E =-.231976E-03  mag=    39.9959
       N       E                     dE             d eps       ncg     rms          rms(c)
DAV:   1    -0.125600808114E+04   -0.66351E-04   -0.28798E-02 43392   0.237E-01    0.552E-02
DAV:   2    -0.125600815404E+04   -0.72896E-04   -0.87530E-04 48888   0.479E-02
  30 F= -.12560082E+04 E0= -.12560082E+04  d E =-.152737E-03  mag=    39.9962
