       N       E                     dE             d eps       ncg     rms          rms(c)
DAV:   1     0.111258910212E+05    0.11126E+05   -0.39381E+05 21516   0.125E+03
DAV:   2     0.104501204555E+04   -0.10081E+05   -0.92809E+04 22164   0.351E+02
DAV:   3    -0.142591670631E+04   -0.24709E+04   -0.23881E+04 24132   0.181E+02
DAV:   4    -0.164753494691E+04   -0.22162E+03   -0.21813E+03 32412   0.606E+01
DAV:   5    -0.165602702963E+04   -0.84921E+01   -0.83722E+01 33864   0.137E+01
DAV:   6    -0.165641878572E+04   -0.39176E+00   -0.38809E+00 34008   0.251E+00
DAV:   7    -0.165644235979E+04   -0.23574E-01   -0.23458E-01 34284   0.620E-01
DAV:   8    -0.165644406781E+04   -0.17080E-02   -0.17036E-02 31644   0.143E-01
DAV:   9    -0.165644420417E+04   -0.13636E-03   -0.13610E-03 22296   0.416E-02
DAV:  10    -0.165644421614E+04   -0.11971E-04   -0.11931E-04 18144   0.157E-02
DAV:  11    -0.165644421853E+04   -0.23828E-05   -0.23643E-05 16980   0.985E-03
DAV:  12    -0.165644421977E+04   -0.12428E-05   -0.12330E-05 16476   0.709E-03    0.166E+02
DAV:  13    -0.122267659341E+04    0.43377E+03   -0.25255E+03 31872   0.806E+01    0.105E+02
DAV:  14    -0.126140272924E+04   -0.38726E+02   -0.68614E+02 33696   0.412E+01    0.687E+01
DAV:  15    -0.125664587888E+04    0.47569E+01   -0.79089E+01 30012   0.134E+01    0.418E+01
DAV:  16    -0.126165147680E+04   -0.50056E+01   -0.65414E+01 32328   0.159E+01    0.283E+01
DAV:  17    -0.125719138081E+04    0.44601E+01   -0.22030E+01 31932   0.788E+00    0.121E+01
DAV:  18    -0.125672969480E+04    0.46169E+00   -0.75411E+00 30888   0.496E+00    0.590E+00
DAV:  19    -0.125653012049E+04    0.19957E+00   -0.22145E+00 31248   0.264E+00    0.181E+00
DAV:  20    -0.125656007706E+04   -0.29957E-01   -0.24022E-01 31152   0.109E+00    0.143E+00
DAV:  21    -0.125657197568E+04   -0.11899E-01   -0.95773E-02 31524   0.741E-01    0.885E-01
DAV:  22    -0.125657065277E+04    0.13229E-02   -0.15911E-02 30708   0.260E-01    0.390E-01
DAV:  23    -0.125657064108E+04    0.11692E-04   -0.14200E-02 30888   0.174E-01    0.311E-01
DAV:  24    -0.125657071523E+04   -0.74148E-04   -0.32121E-03 30612   0.119E-01    0.119E-01
DAV:  25    -0.125657064282E+04    0.72414E-04   -0.12500E-03 29868   0.615E-02    0.129E-01
DAV:  26    -0.125657064229E+04    0.52121E-06   -0.35150E-04 19980   0.297E-02
   1 F= -.12565706E+04 E0= -.12565706E+04  d E =-.125657E+04  mag=    39.9984
       N       E                     dE             d eps       ncg     rms          rms(c)
DAV:   1    -0.125662405836E+04   -0.53416E-01   -0.14300E+00 24792   0.191E+00    0.187E+00
DAV:   2    -0.125658333085E+04    0.40728E-01   -0.37978E-01 31596   0.101E+00    0.150E+00
DAV:   3    -0.125657196658E+04    0.11364E-01   -0.68599E-02 31296   0.482E-01    0.586E-01
DAV:   4    -0.125657097749E+04    0.98909E-03   -0.40092E-03 28740   0.112E-01    0.327E-01
DAV:   5    -0.125657073821E+04    0.23928E-03   -0.23278E-03 31548   0.924E-02    0.111E-01
DAV:   6    -0.125657068689E+04    0.51324E-04   -0.56450E-04 25332   0.566E-02
   2 F= -.12565707E+04 E0= -.12565707E+04  d E =-.445939E-04  mag=    39.9987
       N       E                     dE             d eps       ncg     rms          rms(c)
DAV:   1    -0.125659953887E+04   -0.28801E-01   -0.70791E-01 23472   0.133E+00    0.127E+00
DAV:   2    -0.125658113599E+04    0.18403E-01   -0.18091E-01 31608   0.751E-01    0.115E+00
DAV:   3    -0.125657561313E+04    0.55229E-02   -0.34185E-02 31392   0.326E-01    0.462E-01
DAV:   4    -0.125657509023E+04    0.52290E-03   -0.23320E-03 29604   0.777E-02    0.266E-01
DAV:   5    -0.125657490492E+04    0.18530E-03   -0.12850E-03 30588   0.738E-02    0.126E-01
DAV:   6    -0.125657482502E+04    0.79898E-04   -0.45460E-04 23220   0.384E-02
   3 F= -.12565748E+04 E0= -.12565748E+04  d E =-.413814E-02  mag=    39.9990
       N       E                     dE             d eps       ncg     rms          rms(c)
DAV:   1    -0.125657585180E+04   -0.94687E-03   -0.11954E-01 21888   0.488E-01    0.201E-01
DAV:   2    -0.125657598714E+04   -0.13535E-03   -0.82540E-03 30372   0.172E-01    0.252E-01
DAV:   3    -0.125657582157E+04    0.16558E-03   -0.12233E-03 27660   0.569E-02    0.178E-01
DAV:   4    -0.125657570236E+04    0.11921E-03   -0.60583E-04 21432   0.336E-02    0.129E-01
DAV:   5    -0.125657565938E+04    0.42979E-04   -0.17034E-04 17148   0.308E-02
   4 F= -.12565757E+04 E0= -.12565757E+04  d E =-.834356E-03  mag=    39.9992
       N       E                     dE             d eps       ncg     rms          rms(c)
DAV:   1    -0.125658082542E+04   -0.51231E-02   -0.42180E-01 22008   0.945E-01    0.626E-01
DAV:   2    -0.125657532302E+04    0.55024E-02   -0.34898E-02 31092   0.330E-01    0.465E-01
DAV:   3    -0.125657462714E+04    0.69588E-03   -0.66353E-03 30948   0.158E-01    0.234E-01
DAV:   4    -0.125657438735E+04    0.23979E-03   -0.20535E-03 30900   0.759E-02    0.141E-01
DAV:   5    -0.125657431672E+04    0.70627E-04   -0.37576E-04 21768   0.424E-02
   5 F= -.12565743E+04 E0= -.12565743E+04  d E =0.134266E-02  mag=    39.9993
       N       E                     dE             d eps       ncg     rms          rms(c)
DAV:   1    -0.125657866560E+04   -0.42782E-02   -0.20992E-01 21984   0.663E-01    0.375E-01
DAV:   2    -0.125657690096E+04    0.17646E-02   -0.13948E-02 30240   0.211E-01    0.304E-01
DAV:   3    -0.125657668330E+04    0.21766E-03   -0.22496E-03 29892   0.909E-02    0.162E-01
DAV:   4    -0.125657655355E+04    0.12975E-03   -0.88058E-04 26496   0.492E-02    0.994E-02
DAV:   5    -0.125657650338E+04    0.50168E-04   -0.14278E-04 15804   0.277E-02
   6 F= -.12565765E+04 E0= -.12565765E+04  d E =-.218666E-02  mag=    39.9994
