       N       E                     dE             d eps       ncg     rms          rms(c)
DAV:   1     0.111121877538E+05    0.11112E+05   -0.39392E+05 43032   0.125E+03
DAV:   2     0.104504076892E+04   -0.10067E+05   -0.92692E+04 44352   0.350E+02
DAV:   3    -0.142498558039E+04   -0.24700E+04   -0.23915E+04 48204   0.181E+02
DAV:   4    -0.164738610671E+04   -0.22240E+03   -0.21895E+03 64740   0.606E+01
DAV:   5    -0.165593366570E+04   -0.85476E+01   -0.84277E+01 67332   0.137E+01
DAV:   6    -0.165632673573E+04   -0.39307E+00   -0.38954E+00 68136   0.252E+00
DAV:   7    -0.165634965927E+04   -0.22924E-01   -0.22816E-01 68256   0.616E-01
DAV:   8    -0.165635129323E+04   -0.16340E-02   -0.16300E-02 63516   0.141E-01
DAV:   9    -0.165635142020E+04   -0.12698E-03   -0.12677E-03 44148   0.408E-02
DAV:  10    -0.165635143127E+04   -0.11062E-04   -0.11029E-04 36156   0.155E-02
DAV:  11    -0.165635143362E+04   -0.23514E-05   -0.23370E-05 33804   0.987E-03
DAV:  12    -0.165635143486E+04   -0.12389E-05   -0.12312E-05 32892   0.711E-03    0.166E+02
DAV:  13    -0.122303244617E+04    0.43332E+03   -0.25340E+03 63684   0.822E+01    0.105E+02
DAV:  14    -0.125897135562E+04   -0.35939E+02   -0.69416E+02 68808   0.533E+01    0.716E+01
DAV:  15    -0.125738866968E+04    0.15827E+01   -0.96857E+01 62700   0.239E+01    0.457E+01
DAV:  16    -0.125820947955E+04   -0.82081E+00   -0.64540E+01 68856   0.232E+01    0.379E+01
DAV:  17    -0.125729871863E+04    0.91076E+00   -0.26190E+01 64044   0.887E+00    0.165E+01
DAV:  18    -0.125631028655E+04    0.98843E+00   -0.95135E+00 66588   0.816E+00    0.758E+00
DAV:  19    -0.125601281653E+04    0.29747E+00   -0.35800E+00 64248   0.381E+00    0.498E+00
DAV:  20    -0.125608883924E+04   -0.76023E-01   -0.50311E-01 61308   0.160E+00    0.267E+00
DAV:  21    -0.125608108216E+04    0.77571E-02   -0.15837E-01 59124   0.893E-01    0.121E+00
DAV:  22    -0.125609296707E+04   -0.11885E-01   -0.59784E-02 64428   0.541E-01    0.683E-01
DAV:  23    -0.125609289696E+04    0.70105E-04   -0.17250E-02 59412   0.291E-01    0.360E-01
DAV:  24    -0.125609275178E+04    0.14518E-03   -0.86197E-03 63768   0.158E-01    0.205E-01
DAV:  25    -0.125609254495E+04    0.20683E-03   -0.20982E-03 62772   0.893E-02    0.136E-01
DAV:  26    -0.125609259279E+04   -0.47837E-04   -0.86191E-04 58800   0.573E-02
   1 F= -.12560926E+04 E0= -.12560926E+04  d E =-.125609E+04  mag=    39.9118
       N       E                     dE             d eps       ncg     rms          rms(c)
DAV:   1    -0.125610457091E+04   -0.12026E-01   -0.76193E-01 44172   0.131E+00    0.796E-01
DAV:   2    -0.125609799657E+04    0.65743E-02   -0.41782E-02 62712   0.386E-01    0.639E-01
DAV:   3    -0.125609643594E+04    0.15606E-02   -0.73795E-03 62832   0.179E-01    0.322E-01
DAV:   4    -0.125609576795E+04    0.66799E-03   -0.31939E-03 63612   0.952E-02    0.179E-01
DAV:   5    -0.125609564066E+04    0.12729E-03   -0.99026E-04 56268   0.542E-02    0.786E-02
DAV:   6    -0.125609563660E+04    0.40570E-05   -0.56505E-04 45672   0.431E-02
   2 F= -.12560956E+04 E0= -.12560956E+04  d E =-.304382E-02  mag=    39.9297
       N       E                     dE             d eps       ncg     rms          rms(c)
DAV:   1    -0.125609992171E+04   -0.42810E-02   -0.15292E-01 44796   0.581E-01    0.406E-01
DAV:   2    -0.125609780726E+04    0.21144E-02   -0.14661E-02 63456   0.222E-01    0.310E-01
DAV:   3    -0.125609752934E+04    0.27793E-03   -0.27786E-03 61968   0.104E-01    0.134E-01
DAV:   4    -0.125609741168E+04    0.11766E-03   -0.50110E-04 46008   0.423E-02    0.755E-02
DAV:   5    -0.125609738847E+04    0.23206E-04   -0.20359E-04 33012   0.285E-02
   3 F= -.12560974E+04 E0= -.12560974E+04  d E =-.175187E-02  mag=    39.9412
       N       E                     dE             d eps       ncg     rms          rms(c)
DAV:   1    -0.125609776035E+04   -0.34867E-03   -0.46236E-01 43776   0.969E-01    0.340E-01
DAV:   2    -0.125609854864E+04   -0.78829E-03   -0.18932E-02 58584   0.236E-01    0.344E-01
DAV:   3    -0.125609816001E+04    0.38863E-03   -0.18409E-03 57756   0.754E-02    0.198E-01
DAV:   4    -0.125609795985E+04    0.20016E-03   -0.17288E-03 60624   0.658E-02    0.112E-01
DAV:   5    -0.125609790005E+04    0.59803E-04   -0.35440E-04 38736   0.375E-02
   4 F= -.12560979E+04 E0= -.12560979E+04  d E =-.511573E-03  mag=    39.9515
       N       E                     dE             d eps       ncg     rms          rms(c)
DAV:   1    -0.125609881004E+04   -0.85019E-03   -0.11986E-01 43752   0.458E-01    0.199E-01
DAV:   2    -0.125609896839E+04   -0.15835E-03   -0.82763E-03 55860   0.178E-01    0.287E-01
DAV:   3    -0.125609887615E+04    0.92233E-04   -0.11644E-03 50964   0.544E-02    0.217E-01
DAV:   4    -0.125609875193E+04    0.12422E-03   -0.73368E-04 48240   0.409E-02    0.168E-01
DAV:   5    -0.125609873951E+04    0.12426E-04   -0.27506E-04 41448   0.316E-02
   5 F= -.12560987E+04 E0= -.12560987E+04  d E =-.839461E-03  mag=    39.9599
       N       E                     dE             d eps       ncg     rms          rms(c)
DAV:   1    -0.125609922909E+04   -0.47716E-03   -0.78418E-02 43848   0.403E-01    0.173E-01
DAV:   2    -0.125609908501E+04    0.14408E-03   -0.42340E-03 63696   0.117E-01    0.139E-01
DAV:   3    -0.125609905697E+04    0.28037E-04   -0.64138E-04 47460   0.467E-02
   6 F= -.12560991E+04 E0= -.12560991E+04  d E =-.317467E-03  mag=    39.9635
       N       E                     dE             d eps       ncg     rms          rms(c)
DAV:   1    -0.125609867131E+04    0.41370E-03   -0.92486E-02 43752   0.405E-01    0.127E-01
DAV:   2    -0.125609893096E+04   -0.25965E-03   -0.50125E-03 56448   0.131E-01    0.195E-01
DAV:   3    -0.125609891279E+04    0.18177E-04   -0.61967E-04 45396   0.380E-02
   7 F= -.12560989E+04 E0= -.12560989E+04  d E =0.144188E-03  mag=    39.9658
       N       E                     dE             d eps       ncg     rms          rms(c)
DAV:   1    -0.125609968299E+04   -0.75202E-03   -0.98438E-02 44628   0.461E-01    0.256E-01
DAV:   2    -0.125609950677E+04    0.17622E-03   -0.11234E-02 63336   0.207E-01    0.284E-01
DAV:   3    -0.125609915237E+04    0.35440E-03   -0.15314E-03 60312   0.774E-02    0.961E-02
DAV:   4    -0.125609912840E+04    0.23973E-04   -0.35965E-04 42864   0.295E-02
   8 F= -.12560991E+04 E0= -.12560991E+04  d E =-.215612E-03  mag=    39.9699
       N       E                     dE             d eps       ncg     rms          rms(c)
DAV:   1    -0.125609931645E+04   -0.16408E-03   -0.36513E-02 43728   0.268E-01    0.739E-02
DAV:   2    -0.125609937994E+04   -0.63491E-04   -0.11040E-03 48972   0.525E-02    0.391E-02
DAV:   3    -0.125609937877E+04    0.11744E-05   -0.74617E-05 25128   0.195E-02
   9 F= -.12560994E+04 E0= -.12560994E+04  d E =-.250371E-03  mag=    39.9725
       N       E                     dE             d eps       ncg     rms          rms(c)
DAV:   1    -0.125609757921E+04    0.18007E-02   -0.35402E-01 43680   0.837E-01    0.178E-01
DAV:   2    -0.125609846461E+04   -0.88540E-03   -0.10722E-02 58104   0.172E-01    0.188E-01
DAV:   3    -0.125609843136E+04    0.33252E-04   -0.51677E-04 47340   0.488E-02
  10 F= -.12560984E+04 E0= -.12560984E+04  d E =0.947412E-03  mag=    39.9747
       N       E                     dE             d eps       ncg     rms          rms(c)
DAV:   1    -0.125609819721E+04    0.26740E-03   -0.30487E-01 43416   0.769E-01    0.276E-01
DAV:   2    -0.125609877405E+04   -0.57685E-03   -0.18550E-02 59088   0.260E-01    0.388E-01
DAV:   3    -0.125609853826E+04    0.23579E-03   -0.25139E-03 55920   0.820E-02    0.275E-01
DAV:   4    -0.125609835698E+04    0.18128E-03   -0.92997E-04 50232   0.455E-02    0.221E-01
DAV:   5    -0.125609830028E+04    0.56697E-04   -0.27238E-04 38784   0.308E-02
  11 F= -.12560983E+04 E0= -.12560983E+04  d E =0.131077E-03  mag=    39.9792
       N       E                     dE             d eps       ncg     rms          rms(c)
DAV:   1    -0.125609921263E+04   -0.85565E-03   -0.12739E-01 43464   0.459E-01    0.180E-01
DAV:   2    -0.125609955309E+04   -0.34045E-03   -0.85953E-03 56544   0.173E-01    0.275E-01
DAV:   3    -0.125609943672E+04    0.11637E-03   -0.89247E-04 49500   0.478E-02    0.216E-01
DAV:   4    -0.125609927560E+04    0.16112E-03   -0.57011E-04 44676   0.362E-02    0.163E-01
DAV:   5    -0.125609924508E+04    0.30524E-04   -0.47138E-04 46932   0.463E-02
  12 F= -.12560992E+04 E0= -.12560992E+04  d E =-.944796E-03  mag=    39.9829
       N       E                     dE             d eps       ncg     rms          rms(c)
DAV:   1    -0.125609949133E+04   -0.21573E-03   -0.70114E-02 43704   0.376E-01    0.131E-01
DAV:   2    -0.125609955324E+04   -0.61906E-04   -0.27469E-03 59184   0.845E-02    0.898E-02
DAV:   3    -0.125609951467E+04    0.38561E-04   -0.18089E-04 33624   0.329E-02
  13 F= -.12560995E+04 E0= -.12560995E+04  d E =-.269599E-03  mag=    39.9845
       N       E                     dE             d eps       ncg     rms          rms(c)
DAV:   1    -0.125609892709E+04    0.62614E-03   -0.85372E-02 43512   0.396E-01    0.146E-01
DAV:   2    -0.125609896298E+04   -0.35887E-04   -0.39262E-03 55560   0.106E-01    0.152E-01
DAV:   3    -0.125609893530E+04    0.27684E-04   -0.49914E-04 45216   0.374E-02
  14 F= -.12560989E+04 E0= -.12560989E+04  d E =0.579379E-03  mag=    39.9859
       N       E                     dE             d eps       ncg     rms          rms(c)
DAV:   1    -0.125609978146E+04   -0.81848E-03   -0.25796E-01 43524   0.704E-01    0.254E-01
DAV:   2    -0.125609977933E+04    0.21370E-05   -0.12376E-02 55992   0.178E-01    0.231E-01
DAV:   3    -0.125609967716E+04    0.10217E-03   -0.11335E-03 53940   0.651E-02    0.120E-01
DAV:   4    -0.125609959084E+04    0.86323E-04   -0.53992E-04 45996   0.393E-02
  15 F= -.12560996E+04 E0= -.12560996E+04  d E =-.655539E-03  mag=    39.9877
       N       E                     dE             d eps       ncg     rms          rms(c)
DAV:   1    -0.125609985538E+04   -0.17822E-03   -0.19287E-02 43680   0.188E-01    0.580E-02
DAV:   2    -0.125609990195E+04   -0.46579E-04   -0.11305E-03 54660   0.603E-02    0.805E-02
DAV:   3    -0.125609988561E+04    0.16344E-04   -0.76329E-05 25080   0.197E-02
  16 F= -.12560999E+04 E0= -.12560999E+04  d E =-.294775E-03  mag=    39.9885
       N       E                     dE             d eps       ncg     rms          rms(c)
DAV:   1    -0.125610026578E+04   -0.36383E-03   -0.71720E-02 43488   0.385E-01    0.175E-01
DAV:   2    -0.125610013388E+04    0.13190E-03   -0.34305E-03 60948   0.993E-02    0.125E-01
DAV:   3    -0.125610006206E+04    0.71822E-04   -0.46974E-04 44976   0.454E-02
  17 F= -.12561001E+04 E0= -.12561001E+04  d E =-.176450E-03  mag=    39.9896
       N       E                     dE             d eps       ncg     rms          rms(c)
DAV:   1    -0.125609992245E+04    0.21143E-03   -0.11766E-02 43584   0.143E-01    0.656E-02
DAV:   2    -0.125609994962E+04   -0.27170E-04   -0.76509E-04 48780   0.491E-02
  18 F= -.12560999E+04 E0= -.12560999E+04  d E =0.112441E-03  mag=    39.9901
       N       E                     dE             d eps       ncg     rms          rms(c)
DAV:   1    -0.125610013869E+04   -0.21624E-03   -0.15740E-02 43596   0.167E-01    0.690E-02
DAV:   2    -0.125610016195E+04   -0.23260E-04   -0.13329E-03 56508   0.618E-02    0.782E-02
DAV:   3    -0.125610012962E+04    0.32333E-04   -0.15719E-04 28500   0.237E-02
  19 F= -.12561001E+04 E0= -.12561001E+04  d E =-.180002E-03  mag=    39.9908
       N       E                     dE             d eps       ncg     rms          rms(c)
DAV:   1    -0.125610121172E+04   -0.10498E-02   -0.10811E-01 44088   0.482E-01    0.278E-01
DAV:   2    -0.125610029587E+04    0.91585E-03   -0.74754E-03 63000   0.150E-01    0.204E-01
DAV:   3    -0.125610014782E+04    0.14805E-03   -0.12992E-03 59712   0.726E-02    0.948E-02
DAV:   4    -0.125610008888E+04    0.58935E-04   -0.16457E-04 32892   0.284E-02
  20 F= -.12561001E+04 E0= -.12561001E+04  d E =0.407394E-04  mag=    39.9921
       N       E                     dE             d eps       ncg     rms          rms(c)
DAV:   1    -0.125610136916E+04   -0.12213E-02   -0.51135E-02 43764   0.333E-01    0.232E-01
DAV:   2    -0.125610070642E+04    0.66274E-03   -0.52093E-03 63312   0.128E-01    0.172E-01
DAV:   3    -0.125610057083E+04    0.13560E-03   -0.96101E-04 56136   0.616E-02    0.752E-02
DAV:   4    -0.125610054471E+04    0.26120E-04   -0.16622E-04 32508   0.262E-02
  21 F= -.12561005E+04 E0= -.12561005E+04  d E =-.455824E-03  mag=    39.9932
       N       E                     dE             d eps       ncg     rms          rms(c)
DAV:   1    -0.125610067141E+04   -0.10059E-03   -0.47196E-02 43392   0.304E-01    0.133E-01
DAV:   2    -0.125610068217E+04   -0.10755E-04   -0.30687E-03 60516   0.106E-01    0.157E-01
DAV:   3    -0.125610062015E+04    0.62017E-04   -0.47973E-04 44820   0.382E-02
  22 F= -.12561006E+04 E0= -.12561006E+04  d E =-.754436E-04  mag=    39.9938
       N       E                     dE             d eps       ncg     rms          rms(c)
DAV:   1    -0.125610081978E+04   -0.13761E-03   -0.26379E-02 43476   0.221E-01    0.842E-02
DAV:   2    -0.125610093093E+04   -0.11115E-03   -0.24353E-03 60360   0.901E-02    0.123E-01
DAV:   3    -0.125610085800E+04    0.72930E-04   -0.22291E-04 33960   0.304E-02
  23 F= -.12561009E+04 E0= -.12561009E+04  d E =-.237850E-03  mag=    39.9943
       N       E                     dE             d eps       ncg     rms          rms(c)
DAV:   1    -0.125610118722E+04   -0.25629E-03   -0.56357E-02 44016   0.342E-01    0.155E-01
DAV:   2    -0.125610103191E+04    0.15531E-03   -0.27626E-03 62076   0.915E-02    0.110E-01
DAV:   3    -0.125610098394E+04    0.47970E-04   -0.36497E-04 43068   0.434E-02
  24 F= -.12561010E+04 E0= -.12561010E+04  d E =-.125942E-03  mag=    39.9948
       N       E                     dE             d eps       ncg     rms          rms(c)
DAV:   1    -0.125610118122E+04   -0.14931E-03   -0.15523E-02 43704   0.179E-01    0.726E-02
DAV:   2    -0.125610117145E+04    0.97698E-05   -0.77541E-04 51672   0.508E-02
  25 F= -.12561012E+04 E0= -.12561012E+04  d E =-.187513E-03  mag=    39.9951
       N       E                     dE             d eps       ncg     rms          rms(c)
DAV:   1    -0.125610128404E+04   -0.10282E-03   -0.22536E-02 43728   0.213E-01    0.103E-01
DAV:   2    -0.125610124690E+04    0.37141E-04   -0.86881E-04 51492   0.526E-02
  26 F= -.12561012E+04 E0= -.12561012E+04  d E =-.754465E-04  mag=    39.9954
       N       E                     dE             d eps       ncg     rms          rms(c)
DAV:   1    -0.125610128640E+04   -0.23552E-05   -0.17056E-02 43752   0.183E-01    0.960E-02
DAV:   2    -0.125610130110E+04   -0.14698E-04   -0.95948E-04 52680   0.542E-02
  27 F= -.12561013E+04 E0= -.12561013E+04  d E =-.541937E-04  mag=    39.9957
       N       E                     dE             d eps       ncg     rms          rms(c)
DAV:   1    -0.125610140144E+04   -0.11505E-03   -0.40600E-03 45108   0.920E-02    0.460E-02
DAV:   2    -0.125610138936E+04    0.12086E-04   -0.15811E-04 30372   0.253E-02
  28 F= -.12561014E+04 E0= -.12561014E+04  d E =-.882622E-04  mag=    39.9959
       N       E                     dE             d eps       ncg     rms          rms(c)
DAV:   1    -0.125610108696E+04    0.31449E-03   -0.23770E-02 43416   0.199E-01    0.113E-01
DAV:   2    -0.125610125348E+04   -0.16653E-03   -0.10176E-03 52896   0.587E-02    0.957E-02
DAV:   3    -0.125610126317E+04   -0.96892E-05   -0.88945E-05 26892   0.235E-02
  29 F= -.12561013E+04 E0= -.12561013E+04  d E =0.126187E-03  mag=    39.9963
       N       E                     dE             d eps       ncg     rms          rms(c)
DAV:   1    -0.125610179946E+04   -0.54598E-03   -0.10893E-01 43536   0.473E-01    0.195E-01
DAV:   2    -0.125610168966E+04    0.10980E-03   -0.58107E-03 59700   0.134E-01    0.169E-01
DAV:   3    -0.125610159795E+04    0.91708E-04   -0.77335E-04 52644   0.553E-02
  30 F= -.12561016E+04 E0= -.12561016E+04  d E =-.334781E-03  mag=    39.9966
       N       E                     dE             d eps       ncg     rms          rms(c)
DAV:   1    -0.125610169013E+04   -0.47291E-06   -0.26679E-02 43344   0.227E-01    0.668E-02
DAV:   2    -0.125610177519E+04   -0.85055E-04   -0.14567E-03 57204   0.692E-02    0.842E-02
DAV:   3    -0.125610174405E+04    0.31133E-04   -0.12591E-04 29076   0.230E-02
  31 F= -.12561017E+04 E0= -.12561017E+04  d E =-.146102E-03  mag=    39.9969
       N       E                     dE             d eps       ncg     rms          rms(c)
DAV:   1    -0.125610182299E+04   -0.47808E-04   -0.12161E-02 43440   0.154E-01    0.392E-02
DAV:   2    -0.125610185083E+04   -0.27830E-04   -0.42456E-04 35760   0.336E-02
  32 F= -.12561019E+04 E0= -.12561019E+04  d E =-.106772E-03  mag=    39.9971
