       N       E                     dE             d eps       ncg     rms          rms(c)
DAV:   1     0.111325627481E+05    0.11133E+05   -0.39380E+05 43044   0.125E+03
DAV:   2     0.103696299799E+04   -0.10096E+05   -0.92825E+04 44448   0.351E+02
DAV:   3    -0.142671523684E+04   -0.24637E+04   -0.23829E+04 48288   0.181E+02
DAV:   4    -0.164749998893E+04   -0.22078E+03   -0.21731E+03 64776   0.604E+01
DAV:   5    -0.165595234787E+04   -0.84524E+01   -0.83333E+01 67524   0.137E+01
DAV:   6    -0.165634092276E+04   -0.38857E+00   -0.38495E+00 68148   0.251E+00
DAV:   7    -0.165636426754E+04   -0.23345E-01   -0.23230E-01 68232   0.617E-01
DAV:   8    -0.165636597206E+04   -0.17045E-02   -0.17000E-02 63576   0.143E-01
DAV:   9    -0.165636610742E+04   -0.13536E-03   -0.13511E-03 44256   0.415E-02
DAV:  10    -0.165636611925E+04   -0.11832E-04   -0.11796E-04 36264   0.157E-02
DAV:  11    -0.165636612163E+04   -0.23767E-05   -0.23605E-05 33756   0.983E-03
DAV:  12    -0.165636612287E+04   -0.12419E-05   -0.12332E-05 32892   0.710E-03    0.166E+02
DAV:  13    -0.122268593935E+04    0.43368E+03   -0.25263E+03 63804   0.806E+01    0.106E+02
DAV:  14    -0.126116060377E+04   -0.38475E+02   -0.68339E+02 67416   0.408E+01    0.688E+01
DAV:  15    -0.125644080763E+04    0.47198E+01   -0.78782E+01 60012   0.134E+01    0.419E+01
DAV:  16    -0.126142631149E+04   -0.49855E+01   -0.65106E+01 64644   0.159E+01    0.283E+01
DAV:  17    -0.125694740742E+04    0.44789E+01   -0.22123E+01 63936   0.787E+00    0.123E+01
DAV:  18    -0.125650740030E+04    0.44001E+00   -0.75621E+00 62052   0.505E+00    0.599E+00
DAV:  19    -0.125629929382E+04    0.20811E+00   -0.22602E+00 62400   0.265E+00    0.180E+00
DAV:  20    -0.125632785793E+04   -0.28564E-01   -0.24131E-01 62316   0.112E+00    0.143E+00
DAV:  21    -0.125633969603E+04   -0.11838E-01   -0.99401E-02 63312   0.746E-01    0.899E-01
DAV:  22    -0.125633821734E+04    0.14787E-02   -0.16680E-02 61260   0.259E-01    0.395E-01
DAV:  23    -0.125633818695E+04    0.30389E-04   -0.14786E-02 61644   0.176E-01    0.320E-01
DAV:  24    -0.125633826173E+04   -0.74775E-04   -0.31956E-03 60816   0.117E-01    0.119E-01
DAV:  25    -0.125633819648E+04    0.65253E-04   -0.12884E-03 59628   0.606E-02    0.124E-01
DAV:  26    -0.125633818935E+04    0.71304E-05   -0.29035E-04 36120   0.291E-02
   1 F= -.12563382E+04 E0= -.12563382E+04  d E =-.125634E+04  mag=    39.9979
       N       E                     dE             d eps       ncg     rms          rms(c)
DAV:   1    -0.125638744926E+04   -0.49253E-01   -0.14616E+00 48516   0.192E+00    0.180E+00
DAV:   2    -0.125635007441E+04    0.37375E-01   -0.34386E-01 63288   0.999E-01    0.152E+00
DAV:   3    -0.125633934552E+04    0.10729E-01   -0.61076E-02 62040   0.453E-01    0.601E-01
DAV:   4    -0.125633837071E+04    0.97481E-03   -0.37797E-03 54120   0.103E-01    0.317E-01
DAV:   5    -0.125633817179E+04    0.19892E-03   -0.20639E-03 63012   0.829E-02    0.103E-01
DAV:   6    -0.125633810547E+04    0.66317E-04   -0.59758E-04 51168   0.487E-02
   2 F= -.12563381E+04 E0= -.12563381E+04  d E =0.838732E-04  mag=    39.9983
       N       E                     dE             d eps       ncg     rms          rms(c)
DAV:   1    -0.125636506635E+04   -0.26895E-01   -0.74240E-01 46056   0.135E+00    0.122E+00
DAV:   2    -0.125634830669E+04    0.16760E-01   -0.16675E-01 63072   0.742E-01    0.114E+00
DAV:   3    -0.125634310884E+04    0.51978E-02   -0.32050E-02 62148   0.314E-01    0.494E-01
DAV:   4    -0.125634258983E+04    0.51902E-03   -0.29486E-03 57444   0.788E-02    0.272E-01
DAV:   5    -0.125634233815E+04    0.25168E-03   -0.12163E-03 57960   0.746E-02    0.969E-02
DAV:   6    -0.125634228227E+04    0.55879E-04   -0.57713E-04 48888   0.414E-02
   3 F= -.12563423E+04 E0= -.12563423E+04  d E =-.417679E-02  mag=    39.9987
       N       E                     dE             d eps       ncg     rms          rms(c)
DAV:   1    -0.125634342093E+04   -0.10828E-02   -0.15491E-01 43824   0.552E-01    0.204E-01
DAV:   2    -0.125634364275E+04   -0.22183E-03   -0.90356E-03 60288   0.181E-01    0.261E-01
DAV:   3    -0.125634351302E+04    0.12973E-03   -0.13561E-03 53916   0.581E-02    0.190E-01
DAV:   4    -0.125634337293E+04    0.14009E-03   -0.52715E-04 42708   0.321E-02    0.142E-01
DAV:   5    -0.125634331383E+04    0.59102E-04   -0.29963E-04 41196   0.358E-02
   4 F= -.12563433E+04 E0= -.12563433E+04  d E =-.103157E-02  mag=    39.9989
       N       E                     dE             d eps       ncg     rms          rms(c)
DAV:   1    -0.125634870681E+04   -0.53339E-02   -0.43898E-01 43944   0.968E-01    0.639E-01
DAV:   2    -0.125634308683E+04    0.56200E-02   -0.36856E-02 62448   0.337E-01    0.474E-01
DAV:   3    -0.125634232429E+04    0.76254E-03   -0.67360E-03 60912   0.160E-01    0.230E-01
DAV:   4    -0.125634208910E+04    0.23519E-03   -0.20639E-03 62004   0.750E-02    0.136E-01
DAV:   5    -0.125634202248E+04    0.66613E-04   -0.40062E-04 44880   0.426E-02
   5 F= -.12563420E+04 E0= -.12563420E+04  d E =0.129135E-02  mag=    39.9991
       N       E                     dE             d eps       ncg     rms          rms(c)
DAV:   1    -0.125634649787E+04   -0.44088E-02   -0.21245E-01 43896   0.671E-01    0.384E-01
DAV:   2    -0.125634462742E+04    0.18705E-02   -0.14663E-02 61152   0.215E-01    0.307E-01
DAV:   3    -0.125634438888E+04    0.23853E-03   -0.23388E-03 59592   0.929E-02    0.158E-01
DAV:   4    -0.125634425890E+04    0.12998E-03   -0.90007E-04 52812   0.490E-02    0.967E-02
DAV:   5    -0.125634421021E+04    0.48692E-04   -0.14788E-04 31164   0.280E-02
   6 F= -.12563442E+04 E0= -.12563442E+04  d E =-.218772E-02  mag=    39.9993
