       N       E                     dE             d eps       ncg     rms          rms(c)
DAV:   1     0.111168713279E+05    0.11117E+05   -0.39398E+05 43008   0.125E+03
DAV:   2     0.105254731988E+04   -0.10064E+05   -0.92687E+04 44352   0.350E+02
DAV:   3    -0.142687066544E+04   -0.24794E+04   -0.24011E+04 48444   0.181E+02
DAV:   4    -0.164742338396E+04   -0.22055E+03   -0.21720E+03 64740   0.606E+01
DAV:   5    -0.165574830430E+04   -0.83249E+01   -0.82097E+01 67716   0.136E+01
DAV:   6    -0.165612406658E+04   -0.37576E+00   -0.37253E+00 67992   0.247E+00
DAV:   7    -0.165614555571E+04   -0.21489E-01   -0.21395E-01 68316   0.602E-01
DAV:   8    -0.165614704438E+04   -0.14887E-02   -0.14852E-02 63000   0.135E-01
DAV:   9    -0.165614715854E+04   -0.11416E-03   -0.11398E-03 44052   0.394E-02
DAV:  10    -0.165614716850E+04   -0.99618E-05   -0.99313E-05 36072   0.151E-02
DAV:  11    -0.165614717076E+04   -0.22620E-05   -0.22485E-05 33936   0.975E-03
DAV:  12    -0.165614717196E+04   -0.12038E-05   -0.11961E-05 32700   0.703E-03    0.166E+02
DAV:  13    -0.122258295603E+04    0.43356E+03   -0.25475E+03 63984   0.830E+01    0.103E+02
DAV:  14    -0.125865141067E+04   -0.36068E+02   -0.69941E+02 69000   0.475E+01    0.715E+01
DAV:  15    -0.125664062135E+04    0.20108E+01   -0.90713E+01 62292   0.182E+01    0.441E+01
DAV:  16    -0.125831404662E+04   -0.16734E+01   -0.65630E+01 68652   0.207E+01    0.356E+01
DAV:  17    -0.125655827477E+04    0.17558E+01   -0.22780E+01 65064   0.906E+00    0.123E+01
DAV:  18    -0.125579680006E+04    0.76147E+00   -0.11233E+01 66564   0.709E+00    0.636E+00
DAV:  19    -0.125558672880E+04    0.21007E+00   -0.27635E+00 61416   0.282E+00    0.370E+00
DAV:  20    -0.125561048001E+04   -0.23751E-01   -0.34971E-01 63132   0.107E+00    0.130E+00
DAV:  21    -0.125563345587E+04   -0.22976E-01   -0.20745E-01 63768   0.717E-01    0.887E-01
DAV:  22    -0.125562861339E+04    0.48425E-02   -0.42671E-02 61416   0.383E-01    0.525E-01
DAV:  23    -0.125562996245E+04   -0.13491E-02   -0.34165E-02 64032   0.281E-01    0.306E-01
DAV:  24    -0.125563012909E+04   -0.16664E-03   -0.52036E-03 57984   0.139E-01    0.197E-01
DAV:  25    -0.125562996958E+04    0.15952E-03   -0.26492E-03 62568   0.747E-02    0.888E-02
DAV:  26    -0.125563000815E+04   -0.38573E-04   -0.60544E-04 45348   0.357E-02
   1 F= -.12556300E+04 E0= -.12556300E+04  d E =-.125563E+04  mag=    39.9827
       N       E                     dE             d eps       ncg     rms          rms(c)
DAV:   1    -0.125571073042E+04   -0.80761E-01   -0.42443E+00 43920   0.306E+00    0.190E+00
DAV:   2    -0.125567200805E+04    0.38722E-01   -0.22283E-01 61620   0.911E-01    0.148E+00
DAV:   3    -0.125566067979E+04    0.11328E-01   -0.68359E-02 61320   0.488E-01    0.760E-01
DAV:   4    -0.125565592756E+04    0.47522E-02   -0.21309E-02 61236   0.226E-01    0.373E-01
DAV:   5    -0.125565505136E+04    0.87620E-03   -0.56454E-03 62748   0.136E-01    0.119E-01
DAV:   6    -0.125565509069E+04   -0.39334E-04   -0.19728E-03 62520   0.757E-02    0.112E-01
DAV:   7    -0.125565507397E+04    0.16720E-04   -0.15296E-04 28284   0.375E-02
   2 F= -.12556551E+04 E0= -.12556551E+04  d E =-.250658E-01  mag=    39.9865
       N       E                     dE             d eps       ncg     rms          rms(c)
DAV:   1    -0.125567106437E+04   -0.15974E-01   -0.57686E+00 43368   0.334E+00    0.197E+00
DAV:   2    -0.125566319348E+04    0.78709E-02   -0.42969E-01 58776   0.136E+00    0.200E+00
DAV:   3    -0.125565621149E+04    0.69820E-02   -0.83799E-02 60228   0.525E-01    0.118E+00
DAV:   4    -0.125565351367E+04    0.26978E-02   -0.20727E-02 63636   0.257E-01    0.779E-01
DAV:   5    -0.125565205141E+04    0.14623E-02   -0.65726E-03 61404   0.239E-01    0.407E-01
DAV:   6    -0.125565220483E+04   -0.15343E-03   -0.40711E-03 62904   0.136E-01    0.228E-01
DAV:   7    -0.125565225426E+04   -0.49424E-04   -0.67798E-04 49512   0.407E-02
   3 F= -.12556523E+04 E0= -.12556523E+04  d E =0.281971E-02  mag=    39.9896
       N       E                     dE             d eps       ncg     rms          rms(c)
DAV:   1    -0.125566903302E+04   -0.16828E-01   -0.30918E-01 43920   0.805E-01    0.489E-01
DAV:   2    -0.125566744719E+04    0.15858E-02   -0.25208E-02 60012   0.320E-01    0.520E-01
DAV:   3    -0.125566668467E+04    0.76251E-03   -0.49030E-03 60600   0.123E-01    0.312E-01
DAV:   4    -0.125566639212E+04    0.29255E-03   -0.25004E-03 62376   0.804E-02    0.182E-01
DAV:   5    -0.125566624798E+04    0.14414E-03   -0.62394E-04 52812   0.624E-02    0.102E-01
DAV:   6    -0.125566625545E+04   -0.74758E-05   -0.31126E-04 37188   0.304E-02
   4 F= -.12556663E+04 E0= -.12556663E+04  d E =-.140012E-01  mag=    39.9917
       N       E                     dE             d eps       ncg     rms          rms(c)
DAV:   1    -0.125569446985E+04   -0.28222E-01   -0.27269E+00 44184   0.241E+00    0.128E+00
DAV:   2    -0.125567511938E+04    0.19350E-01   -0.14583E-01 62388   0.661E-01    0.886E-01
DAV:   3    -0.125567192271E+04    0.31967E-02   -0.29511E-02 60696   0.332E-01    0.391E-01
DAV:   4    -0.125567049601E+04    0.14267E-02   -0.50148E-03 61440   0.122E-01    0.173E-01
DAV:   5    -0.125567028016E+04    0.21585E-03   -0.23149E-03 63576   0.819E-02    0.113E-01
DAV:   6    -0.125567020528E+04    0.74882E-04   -0.41505E-04 44472   0.390E-02
   5 F= -.12556702E+04 E0= -.12556702E+04  d E =-.394983E-02  mag=    39.9933
       N       E                     dE             d eps       ncg     rms          rms(c)
DAV:   1    -0.125568448807E+04   -0.14208E-01   -0.10785E+00 43344   0.145E+00    0.682E-01
DAV:   2    -0.125568301187E+04    0.14762E-02   -0.57808E-02 58392   0.411E-01    0.659E-01
DAV:   3    -0.125568204840E+04    0.96347E-03   -0.58758E-03 58596   0.154E-01    0.398E-01
DAV:   4    -0.125568148738E+04    0.56102E-03   -0.48313E-03 58356   0.101E-01    0.242E-01
DAV:   5    -0.125568134162E+04    0.14576E-03   -0.10898E-03 57816   0.702E-02    0.110E-01
DAV:   6    -0.125568135139E+04   -0.97653E-05   -0.83289E-04 57396   0.508E-02
   6 F= -.12556814E+04 E0= -.12556814E+04  d E =-.111461E-01  mag=    39.9947
       N       E                     dE             d eps       ncg     rms          rms(c)
DAV:   1    -0.125568518307E+04   -0.38414E-02   -0.14300E+00 43368   0.170E+00    0.524E-01
DAV:   2    -0.125568597647E+04   -0.79340E-03   -0.49379E-02 60624   0.379E-01    0.438E-01
DAV:   3    -0.125568547908E+04    0.49739E-03   -0.67837E-03 59940   0.142E-01    0.201E-01
DAV:   4    -0.125568509559E+04    0.38349E-03   -0.13939E-03 61632   0.639E-02    0.128E-01
DAV:   5    -0.125568498408E+04    0.11151E-03   -0.47535E-04 45528   0.476E-02    0.736E-02
DAV:   6    -0.125568497917E+04    0.49061E-05   -0.13554E-04 25500   0.242E-02
   7 F= -.12556850E+04 E0= -.12556850E+04  d E =-.362779E-02  mag=    39.9957
       N       E                     dE             d eps       ncg     rms          rms(c)
DAV:   1    -0.125568533219E+04   -0.34811E-03   -0.23452E-01 43584   0.672E-01    0.139E-01
DAV:   2    -0.125568585156E+04   -0.51936E-03   -0.84923E-03 58176   0.171E-01    0.183E-01
DAV:   3    -0.125568585259E+04   -0.10298E-05   -0.11130E-03 55344   0.532E-02    0.114E-01
DAV:   4    -0.125568578296E+04    0.69630E-04   -0.16139E-04 30252   0.233E-02
   8 F= -.12556858E+04 E0= -.12556858E+04  d E =-.803784E-03  mag=    39.9962
       N       E                     dE             d eps       ncg     rms          rms(c)
DAV:   1    -0.125568639301E+04   -0.54042E-03   -0.10974E-01 43632   0.459E-01    0.879E-02
DAV:   2    -0.125568666665E+04   -0.27364E-03   -0.34566E-03 59352   0.924E-02    0.862E-02
DAV:   3    -0.125568662774E+04    0.38909E-04   -0.15887E-04 28104   0.283E-02
   9 F= -.12556866E+04 E0= -.12556866E+04  d E =-.844782E-03  mag=    39.9965
       N       E                     dE             d eps       ncg     rms          rms(c)
DAV:   1    -0.125568680811E+04   -0.14146E-03   -0.79436E-03 43776   0.127E-01    0.462E-02
DAV:   2    -0.125568680136E+04    0.67472E-05   -0.24248E-04 30024   0.277E-02
  10 F= -.12556868E+04 E0= -.12556868E+04  d E =-.173618E-03  mag=    39.9967
       N       E                     dE             d eps       ncg     rms          rms(c)
DAV:   1    -0.125568727362E+04   -0.46552E-03   -0.18053E-01 43488   0.591E-01    0.111E-01
DAV:   2    -0.125568765273E+04   -0.37911E-03   -0.48366E-03 54408   0.102E-01    0.693E-02
DAV:   3    -0.125568762999E+04    0.22738E-04   -0.21033E-04 29628   0.258E-02
  11 F= -.12556876E+04 E0= -.12556876E+04  d E =-.828634E-03  mag=    39.9970
       N       E                     dE             d eps       ncg     rms          rms(c)
DAV:   1    -0.125568773222E+04   -0.79490E-04   -0.49916E-03 41928   0.988E-02    0.373E-02
DAV:   2    -0.125568773138E+04    0.84119E-06   -0.13664E-04 23136   0.230E-02
  12 F= -.12556877E+04 E0= -.12556877E+04  d E =-.101387E-03  mag=    39.9972
       N       E                     dE             d eps       ncg     rms          rms(c)
DAV:   1    -0.125568823819E+04   -0.50597E-03   -0.22425E-01 43512   0.665E-01    0.163E-01
DAV:   2    -0.125568855948E+04   -0.32129E-03   -0.73050E-03 55692   0.136E-01    0.127E-01
DAV:   3    -0.125568850993E+04    0.49553E-04   -0.53805E-04 46428   0.473E-02
  13 F= -.12556885E+04 E0= -.12556885E+04  d E =-.778546E-03  mag=    39.9974
       N       E                     dE             d eps       ncg     rms          rms(c)
DAV:   1    -0.125568879714E+04   -0.23766E-03   -0.28148E-01 43296   0.738E-01    0.154E-01
DAV:   2    -0.125568938297E+04   -0.58583E-03   -0.78162E-03 54600   0.134E-01    0.110E-01
DAV:   3    -0.125568934667E+04    0.36302E-04   -0.34368E-04 39072   0.376E-02
  14 F= -.12556893E+04 E0= -.12556893E+04  d E =-.836740E-03  mag=    39.9977
       N       E                     dE             d eps       ncg     rms          rms(c)
DAV:   1    -0.125568955786E+04   -0.17489E-03   -0.25596E-01 43368   0.704E-01    0.128E-01
DAV:   2    -0.125569014170E+04   -0.58384E-03   -0.68872E-03 52728   0.126E-01    0.906E-02
DAV:   3    -0.125569011686E+04    0.24841E-04   -0.30883E-04 38424   0.324E-02
  15 F= -.12556901E+04 E0= -.12556901E+04  d E =-.770194E-03  mag=    39.9979
       N       E                     dE             d eps       ncg     rms          rms(c)
DAV:   1    -0.125569057356E+04   -0.43186E-03   -0.83475E-02 43512   0.413E-01    0.166E-01
DAV:   2    -0.125569049974E+04    0.73824E-04   -0.39371E-03 59784   0.109E-01    0.156E-01
DAV:   3    -0.125569041881E+04    0.80930E-04   -0.44440E-04 44100   0.417E-02
  16 F= -.12556904E+04 E0= -.12556904E+04  d E =-.301946E-03  mag=    39.9981
       N       E                     dE             d eps       ncg     rms          rms(c)
DAV:   1    -0.125569050839E+04   -0.86510E-05   -0.49336E-03 43164   0.989E-02    0.538E-02
DAV:   2    -0.125569050770E+04    0.68806E-06   -0.13812E-04 26052   0.253E-02
  17 F= -.12556905E+04 E0= -.12556905E+04  d E =-.888934E-04  mag=    39.9982
       N       E                     dE             d eps       ncg     rms          rms(c)
DAV:   1    -0.125569133084E+04   -0.82246E-03   -0.45877E-02 45228   0.327E-01    0.206E-01
DAV:   2    -0.125569078633E+04    0.54451E-03   -0.36912E-03 62844   0.106E-01    0.148E-01
DAV:   3    -0.125569069760E+04    0.88729E-04   -0.63975E-04 49296   0.519E-02
  18 F= -.12556907E+04 E0= -.12556907E+04  d E =-.189903E-03  mag=    39.9984
       N       E                     dE             d eps       ncg     rms          rms(c)
DAV:   1    -0.125569083578E+04   -0.49452E-04   -0.18698E-01 43272   0.604E-01    0.171E-01
DAV:   2    -0.125569112160E+04   -0.28582E-03   -0.67715E-03 58620   0.134E-01    0.160E-01
DAV:   3    -0.125569104796E+04    0.73642E-04   -0.59128E-04 46116   0.461E-02
  19 F= -.12556910E+04 E0= -.12556910E+04  d E =-.350356E-03  mag=    39.9985
       N       E                     dE             d eps       ncg     rms          rms(c)
DAV:   1    -0.125569214754E+04   -0.10259E-02   -0.33453E-02 46836   0.289E-01    0.237E-01
DAV:   2    -0.125569145567E+04    0.69187E-03   -0.61011E-03 63384   0.137E-01    0.188E-01
DAV:   3    -0.125569127351E+04    0.18216E-03   -0.11308E-03 57432   0.632E-02    0.608E-02
DAV:   4    -0.125569126083E+04    0.12679E-04   -0.74618E-05 27456   0.195E-02
  20 F= -.12556913E+04 E0= -.12556913E+04  d E =-.212869E-03  mag=    39.9987
       N       E                     dE             d eps       ncg     rms          rms(c)
DAV:   1    -0.125569134652E+04   -0.73018E-04   -0.10653E-01 43320   0.456E-01    0.100E-01
DAV:   2    -0.125569161701E+04   -0.27049E-03   -0.34472E-03 54084   0.967E-02    0.104E-01
DAV:   3    -0.125569160161E+04    0.15401E-04   -0.17685E-04 29520   0.272E-02
  21 F= -.12556916E+04 E0= -.12556916E+04  d E =-.340782E-03  mag=    39.9988
       N       E                     dE             d eps       ncg     rms          rms(c)
DAV:   1    -0.125569157215E+04    0.44860E-04   -0.28211E-03 43764   0.766E-02    0.651E-02
DAV:   2    -0.125569154974E+04    0.22410E-04   -0.16765E-04 28740   0.255E-02
  22 F= -.12556915E+04 E0= -.12556915E+04  d E =0.518695E-04  mag=    39.9989
       N       E                     dE             d eps       ncg     rms          rms(c)
DAV:   1    -0.125569154449E+04    0.27655E-04   -0.18312E-04 29964   0.269E-02    0.321E-02
DAV:   2    -0.125569154773E+04   -0.32352E-05   -0.48525E-05 23940   0.134E-02
  23 F= -.12556915E+04 E0= -.12556915E+04  d E =0.200990E-05  mag=    39.9990
       N       E                     dE             d eps       ncg     rms          rms(c)
DAV:   1    -0.125569209217E+04   -0.54768E-03   -0.17364E-01 43104   0.589E-01    0.339E-01
DAV:   2    -0.125569113205E+04    0.96012E-03   -0.98296E-03 59928   0.182E-01    0.251E-01
DAV:   3    -0.125569102882E+04    0.10323E-03   -0.16162E-03 60396   0.853E-02    0.137E-01
DAV:   4    -0.125569095735E+04    0.71476E-04   -0.46099E-04 45648   0.358E-02
  24 F= -.12556910E+04 E0= -.12556910E+04  d E =0.590383E-03  mag=    39.9991
       N       E                     dE             d eps       ncg     rms          rms(c)
DAV:   1    -0.125569178637E+04   -0.75754E-03   -0.44835E-02 43296   0.287E-01    0.125E-01
DAV:   2    -0.125569174431E+04    0.42054E-04   -0.23560E-03 55536   0.848E-02    0.117E-01
DAV:   3    -0.125569171392E+04    0.30394E-04   -0.19508E-04 31764   0.336E-02
  25 F= -.12556917E+04 E0= -.12556917E+04  d E =-.756572E-03  mag=    39.9992
       N       E                     dE             d eps       ncg     rms          rms(c)
DAV:   1    -0.125569159593E+04    0.14839E-03   -0.68979E-02 43224   0.362E-01    0.192E-01
DAV:   2    -0.125569167630E+04   -0.80375E-04   -0.28986E-03 59616   0.939E-02    0.133E-01
DAV:   3    -0.125569164494E+04    0.31361E-04   -0.36283E-04 41748   0.391E-02
  26 F= -.12556916E+04 E0= -.12556916E+04  d E =0.689777E-04  mag=    39.9993
       N       E                     dE             d eps       ncg     rms          rms(c)
DAV:   1    -0.125569184930E+04   -0.17300E-03   -0.24937E-01 43008   0.707E-01    0.303E-01
DAV:   2    -0.125569130115E+04    0.54816E-03   -0.67548E-03 59688   0.176E-01    0.207E-01
DAV:   3    -0.125569111424E+04    0.18691E-03   -0.16979E-03 59868   0.693E-02    0.151E-01
DAV:   4    -0.125569091135E+04    0.20289E-03   -0.35065E-04 40668   0.419E-02    0.778E-02
DAV:   5    -0.125569087068E+04    0.40667E-04   -0.28619E-04 36300   0.259E-02
  27 F= -.12556909E+04 E0= -.12556909E+04  d E =0.774257E-03  mag=    39.9994
       N       E                     dE             d eps       ncg     rms          rms(c)
DAV:   1    -0.125569169746E+04   -0.78610E-03   -0.88223E-02 43056   0.412E-01    0.222E-01
DAV:   2    -0.125569143934E+04    0.25811E-03   -0.79222E-03 60264   0.183E-01    0.284E-01
DAV:   3    -0.125569128277E+04    0.15657E-03   -0.12222E-03 57504   0.590E-02    0.176E-01
DAV:   4    -0.125569119646E+04    0.86306E-04   -0.50777E-04 45024   0.403E-02
  28 F= -.12556912E+04 E0= -.12556912E+04  d E =-.325781E-03  mag=    39.9995
       N       E                     dE             d eps       ncg     rms          rms(c)
DAV:   1    -0.125569217812E+04   -0.89535E-03   -0.10100E-01 43164   0.465E-01    0.235E-01
DAV:   2    -0.125569183134E+04    0.34678E-03   -0.43644E-03 62508   0.128E-01    0.188E-01
DAV:   3    -0.125569174225E+04    0.89088E-04   -0.62538E-04 50400   0.500E-02
  29 F= -.12556917E+04 E0= -.12556917E+04  d E =-.545784E-03  mag=    39.9995
       N       E                     dE             d eps       ncg     rms          rms(c)
DAV:   1    -0.125568998569E+04    0.18457E-02   -0.24572E-01 43008   0.651E-01    0.338E-01
DAV:   2    -0.125569032176E+04   -0.33607E-03   -0.17777E-02 57480   0.261E-01    0.432E-01
DAV:   3    -0.125569008858E+04    0.23318E-03   -0.27041E-03 55872   0.850E-02    0.307E-01
DAV:   4    -0.125568993622E+04    0.15235E-03   -0.21837E-03 56892   0.737E-02    0.212E-01
DAV:   5    -0.125568985546E+04    0.80768E-04   -0.39470E-04 45792   0.512E-02
  30 F= -.12556899E+04 E0= -.12556899E+04  d E =0.188679E-02  mag=    39.9996
       N       E                     dE             d eps       ncg     rms          rms(c)
DAV:   1    -0.125569162922E+04   -0.16930E-02   -0.27972E-01 43008   0.687E-01    0.321E-01
DAV:   2    -0.125569211406E+04   -0.48483E-03   -0.15150E-02 54828   0.241E-01    0.392E-01
DAV:   3    -0.125569194919E+04    0.16487E-03   -0.18980E-03 54660   0.763E-02    0.291E-01
DAV:   4    -0.125569169229E+04    0.25690E-03   -0.10709E-03 50172   0.511E-02    0.205E-01
DAV:   5    -0.125569158641E+04    0.10588E-03   -0.39138E-04 46104   0.576E-02    0.854E-02
DAV:   6    -0.125569160596E+04   -0.19547E-04   -0.44835E-04 47004   0.348E-02
  31 F= -.12556916E+04 E0= -.12556916E+04  d E =-.175050E-02  mag=    39.9997
       N       E                     dE             d eps       ncg     rms          rms(c)
DAV:   1    -0.125569158543E+04    0.98662E-06   -0.17955E-01 43008   0.592E-01    0.231E-01
DAV:   2    -0.125569188294E+04   -0.29752E-03   -0.71827E-03 60120   0.156E-01    0.206E-01
DAV:   3    -0.125569184247E+04    0.40474E-04   -0.11472E-03 58716   0.561E-02    0.116E-01
DAV:   4    -0.125569176559E+04    0.76882E-04   -0.36315E-04 40440   0.333E-02
  32 F= -.12556918E+04 E0= -.12556918E+04  d E =-.159626E-03  mag=    39.9997
       N       E                     dE             d eps       ncg     rms          rms(c)
DAV:   1    -0.125569023785E+04    0.16046E-02   -0.44716E-01 43008   0.878E-01    0.375E-01
DAV:   2    -0.125569164284E+04   -0.14050E-02   -0.25198E-02 58524   0.283E-01    0.485E-01
DAV:   3    -0.125569135913E+04    0.28371E-03   -0.25518E-03 56208   0.895E-02    0.349E-01
DAV:   4    -0.125569105029E+04    0.30884E-03   -0.10715E-03 50484   0.440E-02    0.265E-01
DAV:   5    -0.125569087902E+04    0.17127E-03   -0.60771E-04 50052   0.539E-02    0.115E-01
DAV:   6    -0.125569087812E+04    0.89571E-06   -0.74915E-04 56844   0.458E-02
  33 F= -.12556909E+04 E0= -.12556909E+04  d E =0.887464E-03  mag=    39.9998
       N       E                     dE             d eps       ncg     rms          rms(c)
DAV:   1    -0.125569244302E+04   -0.15640E-02   -0.23208E-01 43008   0.618E-01    0.296E-01
DAV:   2    -0.125569299919E+04   -0.55617E-03   -0.11727E-02 55464   0.213E-01    0.350E-01
DAV:   3    -0.125569293659E+04    0.62602E-04   -0.19268E-03 56232   0.758E-02    0.250E-01
DAV:   4    -0.125569279297E+04    0.14362E-03   -0.58353E-04 46980   0.357E-02    0.186E-01
DAV:   5    -0.125569270629E+04    0.86684E-04   -0.23201E-04 39360   0.437E-02
  34 F= -.12556927E+04 E0= -.12556927E+04  d E =-.182817E-02  mag=    39.9998
       N       E                     dE             d eps       ncg     rms          rms(c)
DAV:   1    -0.125569287911E+04   -0.86138E-04   -0.83149E-02 43608   0.408E-01    0.124E-01
DAV:   2    -0.125569297482E+04   -0.95707E-04   -0.39428E-03 60600   0.121E-01    0.152E-01
DAV:   3    -0.125569294926E+04    0.25561E-04   -0.55756E-04 48720   0.385E-02
  35 F= -.12556929E+04 E0= -.12556929E+04  d E =-.242968E-03  mag=    39.9998
       N       E                     dE             d eps       ncg     rms          rms(c)
DAV:   1    -0.125569312354E+04   -0.14872E-03   -0.74775E-02 43008   0.382E-01    0.180E-01
DAV:   2    -0.125569316708E+04   -0.43544E-04   -0.43698E-03 62568   0.123E-01    0.178E-01
DAV:   3    -0.125569310811E+04    0.58976E-04   -0.45744E-04 46224   0.485E-02
  36 F= -.12556931E+04 E0= -.12556931E+04  d E =-.158848E-03  mag=    39.9998
       N       E                     dE             d eps       ncg     rms          rms(c)
DAV:   1    -0.125569324449E+04   -0.77409E-04   -0.20753E-02 43032   0.193E-01    0.552E-02
DAV:   2    -0.125569335648E+04   -0.11199E-03   -0.12988E-03 55128   0.531E-02    0.686E-02
DAV:   3    -0.125569333443E+04    0.22053E-04   -0.65693E-05 24096   0.185E-02
  37 F= -.12556933E+04 E0= -.12556933E+04  d E =-.226318E-03  mag=    39.9999
       N       E                     dE             d eps       ncg     rms          rms(c)
DAV:   1    -0.125569349688E+04   -0.14040E-03   -0.44612E-02 43056   0.296E-01    0.992E-02
DAV:   2    -0.125569354437E+04   -0.47490E-04   -0.15110E-03 55020   0.626E-02    0.603E-02
DAV:   3    -0.125569352988E+04    0.14490E-04   -0.12389E-04 32256   0.265E-02
  38 F= -.12556935E+04 E0= -.12556935E+04  d E =-.195457E-03  mag=    39.9999
       N       E                     dE             d eps       ncg     rms          rms(c)
DAV:   1    -0.125569364476E+04   -0.10039E-03   -0.35265E-02 43128   0.262E-01    0.491E-02
DAV:   2    -0.125569373434E+04   -0.89578E-04   -0.10344E-03 47040   0.519E-02    0.470E-02
DAV:   3    -0.125569373144E+04    0.28986E-05   -0.58505E-05 22572   0.169E-02
  39 F= -.12556937E+04 E0= -.12556937E+04  d E =-.201560E-03  mag=    39.9999
       N       E                     dE             d eps       ncg     rms          rms(c)
DAV:   1    -0.125569378431E+04   -0.49970E-04   -0.12159E-03 38628   0.496E-02    0.269E-02
DAV:   2    -0.125569377774E+04    0.65664E-05   -0.53083E-05 22188   0.135E-02
  40 F= -.12556938E+04 E0= -.12556938E+04  d E =-.463021E-04  mag=    39.9999
       N       E                     dE             d eps       ncg     rms          rms(c)
DAV:   1    -0.125569411331E+04   -0.32900E-03   -0.42129E-02 44004   0.294E-01    0.118E-01
DAV:   2    -0.125569402279E+04    0.90519E-04   -0.19581E-03 60948   0.735E-02    0.897E-02
DAV:   3    -0.125569398931E+04    0.33484E-04   -0.20036E-04 35112   0.321E-02
  41 F= -.12556940E+04 E0= -.12556940E+04  d E =-.211563E-03  mag=    39.9999
       N       E                     dE             d eps       ncg     rms          rms(c)
DAV:   1    -0.125569412910E+04   -0.10631E-03   -0.27387E-02 43152   0.234E-01    0.636E-02
DAV:   2    -0.125569417038E+04   -0.41280E-04   -0.99415E-04 52968   0.547E-02
  42 F= -.12556942E+04 E0= -.12556942E+04  d E =-.181070E-03  mag=    39.9999
       N       E                     dE             d eps       ncg     rms          rms(c)
DAV:   1    -0.125569425967E+04   -0.13057E-03   -0.28832E-02 43152   0.236E-01    0.732E-02
DAV:   2    -0.125569431948E+04   -0.59815E-04   -0.88413E-04 49488   0.474E-02
  43 F= -.12556943E+04 E0= -.12556943E+04  d E =-.149107E-03  mag=    39.9999
