       N       E                     dE             d eps       ncg     rms          rms(c)
DAV:   1     0.111248603537E+05    0.11125E+05   -0.39381E+05 43020   0.125E+03
DAV:   2     0.104113542205E+04   -0.10084E+05   -0.92769E+04 44388   0.351E+02
DAV:   3    -0.142495207820E+04   -0.24661E+04   -0.23852E+04 48312   0.181E+02
DAV:   4    -0.164694363414E+04   -0.22199E+03   -0.21852E+03 64992   0.606E+01
DAV:   5    -0.165538271294E+04   -0.84391E+01   -0.83207E+01 67548   0.136E+01
DAV:   6    -0.165577354155E+04   -0.39083E+00   -0.38710E+00 68076   0.252E+00
DAV:   7    -0.165579730497E+04   -0.23763E-01   -0.23647E-01 68292   0.623E-01
DAV:   8    -0.165579904097E+04   -0.17360E-02   -0.17314E-02 63432   0.144E-01
DAV:   9    -0.165579917963E+04   -0.13866E-03   -0.13841E-03 44196   0.419E-02
DAV:  10    -0.165579919176E+04   -0.12122E-04   -0.12082E-04 36156   0.159E-02
DAV:  11    -0.165579919422E+04   -0.24689E-05   -0.24519E-05 33816   0.999E-03
DAV:  12    -0.165579919550E+04   -0.12765E-05   -0.12685E-05 32904   0.718E-03    0.166E+02
DAV:  13    -0.122170075163E+04    0.43410E+03   -0.25234E+03 63876   0.812E+01    0.105E+02
DAV:  14    -0.126052879993E+04   -0.38828E+02   -0.68607E+02 67188   0.415E+01    0.691E+01
DAV:  15    -0.125564529885E+04    0.48835E+01   -0.79942E+01 60324   0.136E+01    0.419E+01
DAV:  16    -0.126062590173E+04   -0.49806E+01   -0.65785E+01 64716   0.159E+01    0.286E+01
DAV:  17    -0.125622461037E+04    0.44013E+01   -0.21861E+01 63612   0.780E+00    0.126E+01
DAV:  18    -0.125576978685E+04    0.45482E+00   -0.78192E+00 61728   0.503E+00    0.600E+00
DAV:  19    -0.125556485800E+04    0.20493E+00   -0.22629E+00 62676   0.269E+00    0.186E+00
DAV:  20    -0.125559287492E+04   -0.28017E-01   -0.24268E-01 63012   0.111E+00    0.148E+00
DAV:  21    -0.125560467334E+04   -0.11798E-01   -0.10199E-01 63156   0.721E-01    0.843E-01
DAV:  22    -0.125560299812E+04    0.16752E-02   -0.15899E-02 60048   0.252E-01    0.407E-01
DAV:  23    -0.125560277332E+04    0.22480E-03   -0.13184E-02 63000   0.172E-01    0.250E-01
DAV:  24    -0.125560296482E+04   -0.19150E-03   -0.34656E-03 59592   0.973E-02    0.137E-01
DAV:  25    -0.125560288758E+04    0.77237E-04   -0.87882E-04 54312   0.527E-02
   1 F= -.12556029E+04 E0= -.12556029E+04  d E =-.125560E+04  mag=    39.9992
       N       E                     dE             d eps       ncg     rms          rms(c)
DAV:   1    -0.125542608452E+04    0.17688E+00   -0.21737E+02 43008   0.200E+01    0.793E+00
DAV:   2    -0.125582115336E+04   -0.39507E+00   -0.98920E+00 64368   0.772E+00    0.948E+00
DAV:   3    -0.125592657930E+04   -0.10543E+00   -0.22123E+00 58296   0.241E+00    0.492E+00
DAV:   4    -0.125583912043E+04    0.87459E-01   -0.25038E-01 64068   0.783E-01    0.363E+00
DAV:   5    -0.125575550059E+04    0.83620E-01   -0.31779E-01 56484   0.101E+00    0.184E+00
DAV:   6    -0.125574305667E+04    0.12444E-01   -0.12407E-01 63912   0.788E-01    0.727E-01
DAV:   7    -0.125574483290E+04   -0.17762E-02   -0.57744E-02 62988   0.413E-01    0.331E-01
DAV:   8    -0.125574477001E+04    0.62890E-04   -0.61040E-03 57252   0.149E-01    0.247E-01
DAV:   9    -0.125574463182E+04    0.13819E-03   -0.14721E-03 61104   0.685E-02    0.175E-01
DAV:  10    -0.125574463685E+04   -0.50283E-05   -0.56579E-04 49440   0.440E-02
   2 F= -.12557446E+04 E0= -.12557446E+04  d E =-.141749E+00  mag=    39.9995
       N       E                     dE             d eps       ncg     rms          rms(c)
DAV:   1    -0.125612365638E+04   -0.37902E+00   -0.69047E+01 43008   0.114E+01    0.447E+00
DAV:   2    -0.125622585313E+04   -0.10220E+00   -0.34890E+00 61992   0.431E+00    0.569E+00
DAV:   3    -0.125623818478E+04   -0.12332E-01   -0.73251E-01 61356   0.139E+00    0.316E+00
DAV:   4    -0.125620982712E+04    0.28358E-01   -0.10708E-01 64536   0.525E-01    0.238E+00
DAV:   5    -0.125619308988E+04    0.16737E-01   -0.10607E-01 56844   0.600E-01    0.113E+00
DAV:   6    -0.125618576206E+04    0.73278E-02   -0.47570E-02 63168   0.474E-01    0.549E-01
DAV:   7    -0.125618629791E+04   -0.53584E-03   -0.23630E-02 62940   0.275E-01    0.301E-01
DAV:   8    -0.125618644744E+04   -0.14953E-03   -0.24123E-03 56904   0.914E-02    0.165E-01
DAV:   9    -0.125618636381E+04    0.83631E-04   -0.35159E-04 40008   0.386E-02
   3 F= -.12561864E+04 E0= -.12561864E+04  d E =-.441727E+00  mag=    39.9996
       N       E                     dE             d eps       ncg     rms          rms(c)
DAV:   1    -0.125620577897E+04   -0.19332E-01   -0.91664E+00 43080   0.416E+00    0.242E+00
DAV:   2    -0.125622346199E+04   -0.17683E-01   -0.58275E-01 61956   0.147E+00    0.217E+00
DAV:   3    -0.125621800033E+04    0.54617E-02   -0.92417E-02 60540   0.617E-01    0.107E+00
DAV:   4    -0.125621606679E+04    0.19335E-02   -0.17059E-02 61020   0.195E-01    0.706E-01
DAV:   5    -0.125621538312E+04    0.68367E-03   -0.61284E-03 59580   0.142E-01    0.313E-01
DAV:   6    -0.125621505375E+04    0.32937E-03   -0.37399E-03 63132   0.108E-01    0.110E-01
DAV:   7    -0.125621511469E+04   -0.60940E-04   -0.98616E-04 51444   0.486E-02
   4 F= -.12562151E+04 E0= -.12562151E+04  d E =-.287509E-01  mag=    39.9997
       N       E                     dE             d eps       ncg     rms          rms(c)
DAV:   1    -0.125623937147E+04   -0.24318E-01   -0.33496E+00 43128   0.259E+00    0.113E+00
DAV:   2    -0.125623691150E+04    0.24600E-02   -0.21489E-01 64080   0.102E+00    0.131E+00
DAV:   3    -0.125623467629E+04    0.22352E-02   -0.42500E-02 60696   0.369E-01    0.823E-01
DAV:   4    -0.125623282066E+04    0.18556E-02   -0.75960E-03 62832   0.128E-01    0.571E-01
DAV:   5    -0.125623191735E+04    0.90331E-03   -0.52868E-03 58356   0.139E-01    0.319E-01
DAV:   6    -0.125623138324E+04    0.53410E-03   -0.27032E-03 61536   0.112E-01    0.119E-01
DAV:   7    -0.125623143252E+04   -0.49275E-04   -0.13187E-03 61104   0.617E-02    0.814E-02
DAV:   8    -0.125623143311E+04   -0.59053E-06   -0.11636E-04 26172   0.227E-02
   5 F= -.12562314E+04 E0= -.12562314E+04  d E =-.163184E-01  mag=    39.9998
       N       E                     dE             d eps       ncg     rms          rms(c)
DAV:   1    -0.125623336682E+04   -0.19343E-02   -0.35949E+00 43056   0.260E+00    0.100E+00
DAV:   2    -0.125624545027E+04   -0.12083E-01   -0.16396E-01 62256   0.816E-01    0.109E+00
DAV:   3    -0.125624573138E+04   -0.28111E-03   -0.25693E-02 60900   0.281E-01    0.611E-01
DAV:   4    -0.125624465770E+04    0.10737E-02   -0.55944E-03 63552   0.117E-01    0.433E-01
DAV:   5    -0.125624412065E+04    0.53705E-03   -0.36802E-03 54396   0.106E-01    0.204E-01
DAV:   6    -0.125624388589E+04    0.23476E-03   -0.18016E-03 64944   0.900E-02    0.808E-02
DAV:   7    -0.125624391763E+04   -0.31738E-04   -0.98533E-04 59820   0.583E-02
   6 F= -.12562439E+04 E0= -.12562439E+04  d E =-.124845E-01  mag=    39.9998
       N       E                     dE             d eps       ncg     rms          rms(c)
DAV:   1    -0.125625316417E+04   -0.92783E-02   -0.79250E-01 43272   0.124E+00    0.512E-01
DAV:   2    -0.125625344501E+04   -0.28084E-03   -0.48405E-02 63252   0.443E-01    0.620E-01
DAV:   3    -0.125625305565E+04    0.38935E-03   -0.80937E-03 60420   0.149E-01    0.360E-01
DAV:   4    -0.125625261716E+04    0.43849E-03   -0.26135E-03 59604   0.820E-02    0.276E-01
DAV:   5    -0.125625255225E+04    0.64912E-04   -0.10951E-03 52704   0.649E-02    0.137E-01
DAV:   6    -0.125625242225E+04    0.13001E-03   -0.47028E-04 44844   0.487E-02    0.548E-02
DAV:   7    -0.125625243102E+04   -0.87769E-05   -0.33437E-04 35280   0.362E-02
   7 F= -.12562524E+04 E0= -.12562524E+04  d E =-.851340E-02  mag=    39.9999
       N       E                     dE             d eps       ncg     rms          rms(c)
DAV:   1    -0.125625206711E+04    0.35514E-03   -0.17559E+00 43128   0.179E+00    0.625E-01
DAV:   2    -0.125626048497E+04   -0.84179E-02   -0.51893E-02 52836   0.344E-01    0.348E-01
DAV:   3    -0.125626142821E+04   -0.94324E-03   -0.29486E-03 60720   0.931E-02    0.157E-01
DAV:   4    -0.125626133490E+04    0.93315E-04   -0.24207E-04 34848   0.323E-02
   8 F= -.12562613E+04 E0= -.12562613E+04  d E =-.890387E-02  mag=    39.9999
       N       E                     dE             d eps       ncg     rms          rms(c)
DAV:   1    -0.125626108866E+04    0.33956E-03   -0.14172E+00 43200   0.162E+00    0.511E-01
DAV:   2    -0.125626708758E+04   -0.59989E-02   -0.42901E-02 55680   0.327E-01    0.349E-01
DAV:   3    -0.125626753850E+04   -0.45092E-03   -0.28755E-03 60840   0.101E-01    0.168E-01
DAV:   4    -0.125626744519E+04    0.93306E-04   -0.38987E-04 42900   0.354E-02
   9 F= -.12562674E+04 E0= -.12562674E+04  d E =-.611029E-02  mag=    39.9999
       N       E                     dE             d eps       ncg     rms          rms(c)
DAV:   1    -0.125625336468E+04    0.14174E-01   -0.50879E+00 43008   0.306E+00    0.926E-01
DAV:   2    -0.125627468380E+04   -0.21319E-01   -0.14575E-01 53328   0.574E-01    0.527E-01
DAV:   3    -0.125627671536E+04   -0.20316E-02   -0.80540E-03 60252   0.145E-01    0.251E-01
DAV:   4    -0.125627647362E+04    0.24174E-03   -0.81383E-04 53496   0.507E-02    0.149E-01
DAV:   5    -0.125627626093E+04    0.21269E-03   -0.76648E-04 50664   0.485E-02    0.626E-02
DAV:   6    -0.125627626668E+04   -0.57470E-05   -0.23315E-04 32052   0.331E-02
  10 F= -.12562763E+04 E0= -.12562763E+04  d E =-.882149E-02  mag=    39.9999
       N       E                     dE             d eps       ncg     rms          rms(c)
DAV:   1    -0.125627330103E+04    0.29599E-02   -0.41211E-01 43260   0.876E-01    0.300E-01
DAV:   2    -0.125627491081E+04   -0.16098E-02   -0.15378E-02 55356   0.218E-01    0.274E-01
DAV:   3    -0.125627497141E+04   -0.60592E-04   -0.19560E-03 56556   0.734E-02    0.158E-01
DAV:   4    -0.125627487766E+04    0.93750E-04   -0.54431E-04 46740   0.371E-02
  11 F= -.12562749E+04 E0= -.12562749E+04  d E =0.138902E-02  mag=    39.9999
       N       E                     dE             d eps       ncg     rms          rms(c)
DAV:   1    -0.125627513066E+04   -0.15926E-03   -0.70868E-01 43200   0.116E+00    0.291E-01
DAV:   2    -0.125627778738E+04   -0.26567E-02   -0.22927E-02 54912   0.235E-01    0.217E-01
DAV:   3    -0.125627789586E+04   -0.10848E-03   -0.13778E-03 58800   0.668E-02    0.100E-01
DAV:   4    -0.125627784615E+04    0.49714E-04   -0.14873E-04 29496   0.253E-02
  12 F= -.12562778E+04 E0= -.12562778E+04  d E =-.296849E-02  mag=    39.9999
       N       E                     dE             d eps       ncg     rms          rms(c)
DAV:   1    -0.125627856343E+04   -0.66757E-03   -0.13739E-01 43440   0.508E-01    0.128E-01
DAV:   2    -0.125627902013E+04   -0.45670E-03   -0.41757E-03 57564   0.104E-01    0.107E-01
DAV:   3    -0.125627901596E+04    0.41692E-05   -0.24425E-04 34752   0.318E-02
  13 F= -.12562790E+04 E0= -.12562790E+04  d E =-.116981E-02  mag=    39.9999
       N       E                     dE             d eps       ncg     rms          rms(c)
DAV:   1    -0.125627916329E+04   -0.14316E-03   -0.55289E-01 43200   0.103E+00    0.228E-01
DAV:   2    -0.125628101423E+04   -0.18509E-02   -0.16321E-02 53856   0.190E-01    0.148E-01
DAV:   3    -0.125628106748E+04   -0.53251E-04   -0.84992E-04 53688   0.459E-02
  14 F= -.12562811E+04 E0= -.12562811E+04  d E =-.205152E-02  mag=    40.0000
       N       E                     dE             d eps       ncg     rms          rms(c)
DAV:   1    -0.125628152210E+04   -0.50787E-03   -0.12202E-01 43320   0.484E-01    0.111E-01
DAV:   2    -0.125628190556E+04   -0.38347E-03   -0.48000E-03 58164   0.116E-01    0.141E-01
DAV:   3    -0.125628185831E+04    0.47257E-04   -0.33513E-04 39204   0.340E-02
  15 F= -.12562819E+04 E0= -.12562819E+04  d E =-.790827E-03  mag=    40.0000
       N       E                     dE             d eps       ncg     rms          rms(c)
DAV:   1    -0.125628232741E+04   -0.42184E-03   -0.90249E-02 43368   0.417E-01    0.105E-01
DAV:   2    -0.125628263428E+04   -0.30687E-03   -0.32445E-03 57912   0.878E-02    0.839E-02
DAV:   3    -0.125628260026E+04    0.34022E-04   -0.17756E-04 31272   0.294E-02
  16 F= -.12562826E+04 E0= -.12562826E+04  d E =-.741949E-03  mag=    40.0000
       N       E                     dE             d eps       ncg     rms          rms(c)
DAV:   1    -0.125628300460E+04   -0.37032E-03   -0.23998E-01 43248   0.677E-01    0.126E-01
DAV:   2    -0.125628368796E+04   -0.68336E-03   -0.67940E-03 52860   0.120E-01    0.778E-02
DAV:   3    -0.125628369303E+04   -0.50658E-05   -0.27104E-04 35736   0.278E-02
  17 F= -.12562837E+04 E0= -.12562837E+04  d E =-.109277E-02  mag=    40.0000
       N       E                     dE             d eps       ncg     rms          rms(c)
DAV:   1    -0.125628392984E+04   -0.24188E-03   -0.33987E-01 43200   0.807E-01    0.148E-01
DAV:   2    -0.125628487171E+04   -0.94187E-03   -0.97172E-03 54000   0.146E-01    0.113E-01
DAV:   3    -0.125628487416E+04   -0.24518E-05   -0.47358E-04 44952   0.368E-02
  18 F= -.12562849E+04 E0= -.12562849E+04  d E =-.118113E-02  mag=    40.0000
       N       E                     dE             d eps       ncg     rms          rms(c)
DAV:   1    -0.125628059474E+04    0.42770E-02   -0.23684E+00 43032   0.213E+00    0.382E-01
DAV:   2    -0.125628749373E+04   -0.68990E-02   -0.66600E-02 50748   0.372E-01    0.228E-01
DAV:   3    -0.125628762986E+04   -0.13613E-03   -0.29117E-03 62760   0.801E-02    0.129E-01
DAV:   4    -0.125628748396E+04    0.14590E-03   -0.27117E-04 35532   0.310E-02    0.901E-02
DAV:   5    -0.125628741786E+04    0.66099E-04   -0.47104E-04 40560   0.367E-02
  19 F= -.12562874E+04 E0= -.12562874E+04  d E =-.254369E-02  mag=    40.0000
       N       E                     dE             d eps       ncg     rms          rms(c)
DAV:   1    -0.125628548141E+04    0.20025E-02   -0.48029E-01 43056   0.968E-01    0.210E-01
DAV:   2    -0.125628654457E+04   -0.10632E-02   -0.16045E-02 56784   0.201E-01    0.185E-01
DAV:   3    -0.125628647863E+04    0.65942E-04   -0.11127E-03 57060   0.608E-02    0.811E-02
DAV:   4    -0.125628643584E+04    0.42792E-04   -0.10230E-04 25440   0.250E-02
  20 F= -.12562864E+04 E0= -.12562864E+04  d E =0.982022E-03  mag=    40.0000
       N       E                     dE             d eps       ncg     rms          rms(c)
DAV:   1    -0.125628637887E+04    0.99759E-04   -0.26701E-01 43164   0.717E-01    0.140E-01
DAV:   2    -0.125628725254E+04   -0.87367E-03   -0.80614E-03 51960   0.132E-01    0.790E-02
DAV:   3    -0.125628727784E+04   -0.25300E-04   -0.26775E-04 34092   0.295E-02
  21 F= -.12562873E+04 E0= -.12562873E+04  d E =-.842001E-03  mag=    40.0000
       N       E                     dE             d eps       ncg     rms          rms(c)
DAV:   1    -0.125628719882E+04    0.53713E-04   -0.31589E-02 43296   0.256E-01    0.135E-01
DAV:   2    -0.125628708412E+04    0.11470E-03   -0.22259E-03 62172   0.893E-02    0.124E-01
DAV:   3    -0.125628704070E+04    0.43417E-04   -0.32079E-04 37848   0.356E-02
  22 F= -.12562870E+04 E0= -.12562870E+04  d E =0.237135E-03  mag=    40.0000
       N       E                     dE             d eps       ncg     rms          rms(c)
DAV:   1    -0.125628716175E+04   -0.77629E-04   -0.11027E-02 43776   0.153E-01    0.755E-02
DAV:   2    -0.125628715236E+04    0.93924E-05   -0.10250E-03 57696   0.636E-02    0.878E-02
DAV:   3    -0.125628712360E+04    0.28752E-04   -0.11970E-04 27348   0.240E-02
  23 F= -.12562871E+04 E0= -.12562871E+04  d E =-.829019E-04  mag=    40.0000
       N       E                     dE             d eps       ncg     rms          rms(c)
DAV:   1    -0.125628730912E+04   -0.15676E-03   -0.79285E-02 43272   0.392E-01    0.700E-02
DAV:   2    -0.125628753468E+04   -0.22556E-03   -0.23542E-03 54384   0.729E-02    0.530E-02
DAV:   3    -0.125628752938E+04    0.52992E-05   -0.82075E-05 24276   0.191E-02
  24 F= -.12562875E+04 E0= -.12562875E+04  d E =-.405778E-03  mag=    40.0000
       N       E                     dE             d eps       ncg     rms          rms(c)
DAV:   1    -0.125628768398E+04   -0.14930E-03   -0.45815E-02 43308   0.298E-01    0.527E-02
DAV:   2    -0.125628781098E+04   -0.12700E-03   -0.13250E-03 52944   0.554E-02    0.430E-02
DAV:   3    -0.125628780679E+04    0.41937E-05   -0.62027E-05 23772   0.150E-02
  25 F= -.12562878E+04 E0= -.12562878E+04  d E =-.277407E-03  mag=    40.0000
       N       E                     dE             d eps       ncg     rms          rms(c)
DAV:   1    -0.125628796263E+04   -0.15165E-03   -0.54267E-02 43272   0.325E-01    0.570E-02
DAV:   2    -0.125628811314E+04   -0.15051E-03   -0.15810E-03 53460   0.592E-02    0.444E-02
DAV:   3    -0.125628810861E+04    0.45242E-05   -0.65858E-05 24000   0.157E-02
  26 F= -.12562881E+04 E0= -.12562881E+04  d E =-.301822E-03  mag=    40.0000
       N       E                     dE             d eps       ncg     rms          rms(c)
DAV:   1    -0.125628824332E+04   -0.13018E-03   -0.10071E-01 43200   0.442E-01    0.781E-02
DAV:   2    -0.125628850856E+04   -0.26524E-03   -0.28769E-03 53892   0.794E-02    0.564E-02
DAV:   3    -0.125628850052E+04    0.80396E-05   -0.95205E-05 26004   0.203E-02
  27 F= -.12562885E+04 E0= -.12562885E+04  d E =-.391907E-03  mag=    40.0000
       N       E                     dE             d eps       ncg     rms          rms(c)
DAV:   1    -0.125628852449E+04   -0.15935E-04   -0.16450E-03 43020   0.586E-02    0.376E-02
DAV:   2    -0.125628851310E+04    0.11396E-04   -0.13967E-04 26820   0.255E-02
  28 F= -.12562885E+04 E0= -.12562885E+04  d E =-.125778E-04  mag=    40.0000
       N       E                     dE             d eps       ncg     rms          rms(c)
DAV:   1    -0.125628853958E+04   -0.15089E-04   -0.65177E-04 38436   0.368E-02    0.219E-02
DAV:   2    -0.125628853923E+04    0.35453E-06   -0.26930E-05 22584   0.112E-02
  29 F= -.12562885E+04 E0= -.12562885E+04  d E =-.261312E-04  mag=    40.0000
       N       E                     dE             d eps       ncg     rms          rms(c)
DAV:   1    -0.125628867452E+04   -0.13494E-03   -0.46323E-02 43224   0.301E-01    0.599E-02
DAV:   2    -0.125628878953E+04   -0.11501E-03   -0.14332E-03 52320   0.574E-02    0.449E-02
DAV:   3    -0.125628878652E+04    0.30178E-05   -0.68339E-05 24312   0.172E-02
  30 F= -.12562888E+04 E0= -.12562888E+04  d E =-.247290E-03  mag=    40.0000
       N       E                     dE             d eps       ncg     rms          rms(c)
DAV:   1    -0.125628889774E+04   -0.10821E-03   -0.21088E-02 43296   0.202E-01    0.365E-02
DAV:   2    -0.125628894963E+04   -0.51890E-04   -0.59495E-04 42732   0.380E-02
  31 F= -.12562889E+04 E0= -.12562889E+04  d E =-.163114E-03  mag=    40.0000
       N       E                     dE             d eps       ncg     rms          rms(c)
DAV:   1    -0.125628876112E+04    0.13662E-03   -0.19874E-01 43056   0.621E-01    0.134E-01
DAV:   2    -0.125628940282E+04   -0.64170E-03   -0.57959E-03 52296   0.113E-01    0.824E-02
DAV:   3    -0.125628941255E+04   -0.97318E-05   -0.19733E-04 32076   0.275E-02
  32 F= -.12562894E+04 E0= -.12562894E+04  d E =-.462921E-03  mag=    40.0000
       N       E                     dE             d eps       ncg     rms          rms(c)
DAV:   1    -0.125628936564E+04    0.37185E-04   -0.42561E-03 43368   0.933E-02    0.452E-02
DAV:   2    -0.125628935622E+04    0.94155E-05   -0.20155E-04 28788   0.299E-02
  33 F= -.12562894E+04 E0= -.12562894E+04  d E =0.563325E-04  mag=    40.0000
       N       E                     dE             d eps       ncg     rms          rms(c)
DAV:   1    -0.125628933593E+04    0.29709E-04   -0.63152E-04 37416   0.372E-02    0.177E-02
DAV:   2    -0.125628933695E+04   -0.10211E-05   -0.28944E-05 22656   0.114E-02
  34 F= -.12562893E+04 E0= -.12562893E+04  d E =0.192726E-04  mag=    40.0000
       N       E                     dE             d eps       ncg     rms          rms(c)
DAV:   1    -0.125628939415E+04   -0.58222E-04   -0.57135E-02 43200   0.335E-01    0.511E-02
DAV:   2    -0.125628954809E+04   -0.15394E-03   -0.18029E-03 55128   0.671E-02    0.602E-02
DAV:   3    -0.125628954190E+04    0.61834E-05   -0.86903E-05 24696   0.180E-02
  35 F= -.12562895E+04 E0= -.12562895E+04  d E =-.204955E-03  mag=    40.0000
       N       E                     dE             d eps       ncg     rms          rms(c)
DAV:   1    -0.125628960232E+04   -0.54239E-04   -0.14519E-02 43224   0.168E-01    0.404E-02
DAV:   2    -0.125628964806E+04   -0.45739E-04   -0.64800E-04 48996   0.429E-02
  36 F= -.12562896E+04 E0= -.12562896E+04  d E =-.106162E-03  mag=    40.0000
