       N       E                     dE             d eps       ncg     rms          rms(c)
DAV:   1     0.111202960043E+05    0.11120E+05   -0.39385E+05 43044   0.125E+03
DAV:   2     0.103949726797E+04   -0.10081E+05   -0.92776E+04 44364   0.351E+02
DAV:   3    -0.142641389046E+04   -0.24659E+04   -0.23865E+04 48480   0.181E+02
DAV:   4    -0.164899995680E+04   -0.22259E+03   -0.21919E+03 64932   0.608E+01
DAV:   5    -0.165747827645E+04   -0.84783E+01   -0.83617E+01 67668   0.137E+01
DAV:   6    -0.165787483808E+04   -0.39656E+00   -0.39278E+00 68076   0.254E+00
DAV:   7    -0.165789923068E+04   -0.24393E-01   -0.24277E-01 68352   0.633E-01
DAV:   8    -0.165790102253E+04   -0.17918E-02   -0.17870E-02 63804   0.147E-01
DAV:   9    -0.165790116580E+04   -0.14328E-03   -0.14303E-03 44592   0.426E-02
DAV:  10    -0.165790117839E+04   -0.12589E-04   -0.12550E-04 36372   0.159E-02
DAV:  11    -0.165790118082E+04   -0.24320E-05   -0.24146E-05 33888   0.993E-03
DAV:  12    -0.165790118208E+04   -0.12621E-05   -0.12528E-05 32928   0.714E-03    0.166E+02
DAV:  13    -0.122388590300E+04    0.43402E+03   -0.25315E+03 63804   0.812E+01    0.107E+02
DAV:  14    -0.126092322440E+04   -0.37037E+02   -0.66839E+02 66948   0.411E+01    0.695E+01
DAV:  15    -0.125653544678E+04    0.43878E+01   -0.78699E+01 60648   0.139E+01    0.434E+01
DAV:  16    -0.126163016122E+04   -0.50947E+01   -0.66722E+01 64764   0.165E+01    0.301E+01
DAV:  17    -0.125700123754E+04    0.46289E+01   -0.23043E+01 63588   0.812E+00    0.133E+01
DAV:  18    -0.125657710349E+04    0.42413E+00   -0.79319E+00 61992   0.554E+00    0.647E+00
DAV:  19    -0.125633663292E+04    0.24047E+00   -0.25729E+00 63504   0.296E+00    0.190E+00
DAV:  20    -0.125636193849E+04   -0.25306E-01   -0.26823E-01 61920   0.132E+00    0.177E+00
DAV:  21    -0.125637797974E+04   -0.16041E-01   -0.12589E-01 63468   0.740E-01    0.100E+00
DAV:  22    -0.125637628130E+04    0.16984E-02   -0.21775E-02 59196   0.265E-01    0.467E-01
DAV:  23    -0.125637558995E+04    0.69135E-03   -0.13617E-02 63276   0.188E-01    0.293E-01
DAV:  24    -0.125637575043E+04   -0.16048E-03   -0.43900E-03 58356   0.993E-02    0.215E-01
DAV:  25    -0.125637567258E+04    0.77853E-04   -0.64147E-04 50616   0.598E-02
   1 F= -.12563757E+04 E0= -.12563757E+04  d E =-.125638E+04  mag=    39.9970
       N       E                     dE             d eps       ncg     rms          rms(c)
DAV:   1    -0.125640385775E+04   -0.28107E-01   -0.96250E-01 46152   0.155E+00    0.133E+00
DAV:   2    -0.125638287489E+04    0.20983E-01   -0.17401E-01 62556   0.741E-01    0.111E+00
DAV:   3    -0.125637724578E+04    0.56291E-02   -0.33574E-02 60672   0.338E-01    0.475E-01
DAV:   4    -0.125637667912E+04    0.56666E-03   -0.27799E-03 53436   0.881E-02    0.276E-01
DAV:   5    -0.125637651252E+04    0.16660E-03   -0.61922E-04 48144   0.488E-02    0.121E-01
DAV:   6    -0.125637650198E+04    0.10534E-04   -0.24238E-04 29964   0.319E-02
   2 F= -.12563765E+04 E0= -.12563765E+04  d E =-.829404E-03  mag=    39.9976
       N       E                     dE             d eps       ncg     rms          rms(c)
DAV:   1    -0.125639082441E+04   -0.14312E-01   -0.55983E-01 44364   0.115E+00    0.904E-01
DAV:   2    -0.125638205099E+04    0.87734E-02   -0.92114E-02 62280   0.571E-01    0.868E-01
DAV:   3    -0.125637921493E+04    0.28361E-02   -0.18198E-02 60576   0.236E-01    0.423E-01
DAV:   4    -0.125637889647E+04    0.31847E-03   -0.24755E-03 57696   0.697E-02    0.260E-01
DAV:   5    -0.125637868044E+04    0.21603E-03   -0.42636E-04 42804   0.514E-02    0.121E-01
DAV:   6    -0.125637865209E+04    0.28351E-04   -0.49723E-04 46248   0.388E-02
   3 F= -.12563787E+04 E0= -.12563787E+04  d E =-.215010E-02  mag=    39.9981
       N       E                     dE             d eps       ncg     rms          rms(c)
DAV:   1    -0.125637998120E+04   -0.13008E-02   -0.12721E-01 43824   0.499E-01    0.193E-01
DAV:   2    -0.125638015423E+04   -0.17303E-03   -0.81668E-03 61080   0.170E-01    0.248E-01
DAV:   3    -0.125638002725E+04    0.12698E-03   -0.13143E-03 53232   0.562E-02    0.181E-01
DAV:   4    -0.125637990476E+04    0.12248E-03   -0.49681E-04 42084   0.305E-02    0.137E-01
DAV:   5    -0.125637985971E+04    0.45052E-04   -0.30023E-04 40740   0.302E-02
   4 F= -.12563799E+04 E0= -.12563799E+04  d E =-.120762E-02  mag=    39.9984
       N       E                     dE             d eps       ncg     rms          rms(c)
DAV:   1    -0.125638315485E+04   -0.32501E-02   -0.47180E-01 43872   0.992E-01    0.525E-01
DAV:   2    -0.125637973858E+04    0.34163E-02   -0.27911E-02 59304   0.282E-01    0.366E-01
DAV:   3    -0.125637925532E+04    0.48326E-03   -0.44485E-03 57396   0.136E-01    0.186E-01
DAV:   4    -0.125637912085E+04    0.13447E-03   -0.15931E-03 59556   0.636E-02    0.943E-02
DAV:   5    -0.125637908014E+04    0.40709E-04   -0.36570E-04 42924   0.371E-02
   5 F= -.12563791E+04 E0= -.12563791E+04  d E =0.779572E-03  mag=    39.9987
       N       E                     dE             d eps       ncg     rms          rms(c)
DAV:   1    -0.125638234612E+04   -0.32253E-02   -0.16580E-01 43800   0.586E-01    0.320E-01
DAV:   2    -0.125638115247E+04    0.11936E-02   -0.10024E-02 61188   0.174E-01    0.229E-01
DAV:   3    -0.125638096737E+04    0.18510E-03   -0.17038E-03 58032   0.807E-02    0.132E-01
DAV:   4    -0.125638090117E+04    0.66199E-04   -0.82841E-04 52188   0.410E-02
   6 F= -.12563809E+04 E0= -.12563809E+04  d E =-.182103E-02  mag=    39.9989
       N       E                     dE             d eps       ncg     rms          rms(c)
DAV:   1    -0.125638074758E+04    0.21979E-03   -0.10138E+00 43584   0.141E+00    0.362E-01
DAV:   2    -0.125638191106E+04   -0.11635E-02   -0.33013E-02 55956   0.278E-01    0.278E-01
DAV:   3    -0.125638163476E+04    0.27631E-03   -0.30487E-03 57960   0.103E-01    0.127E-01
DAV:   4    -0.125638154813E+04    0.86631E-04   -0.50003E-04 41664   0.407E-02
   7 F= -.12563815E+04 E0= -.12563815E+04  d E =-.646955E-03  mag=    39.9991
       N       E                     dE             d eps       ncg     rms          rms(c)
DAV:   1    -0.125638189025E+04   -0.25549E-03   -0.16545E-01 43896   0.585E-01    0.223E-01
DAV:   2    -0.125638167872E+04    0.21153E-03   -0.82704E-03 61140   0.153E-01    0.182E-01
DAV:   3    -0.125638153910E+04    0.13962E-03   -0.11426E-03 57288   0.641E-02    0.742E-02
DAV:   4    -0.125638151427E+04    0.24823E-04   -0.93386E-05 24744   0.191E-02
   8 F= -.12563815E+04 E0= -.12563815E+04  d E =0.338521E-04  mag=    39.9992
       N       E                     dE             d eps       ncg     rms          rms(c)
DAV:   1    -0.125638161851E+04   -0.79415E-04   -0.37799E-02 43776   0.273E-01    0.817E-02
DAV:   2    -0.125638163683E+04   -0.18318E-04   -0.11112E-03 51240   0.543E-02    0.604E-02
DAV:   3    -0.125638161661E+04    0.20219E-04   -0.65032E-05 24828   0.160E-02
   9 F= -.12563816E+04 E0= -.12563816E+04  d E =-.102336E-03  mag=    39.9993
       N       E                     dE             d eps       ncg     rms          rms(c)
DAV:   1    -0.125638169719E+04   -0.60359E-04   -0.29071E-02 43776   0.240E-01    0.716E-02
DAV:   2    -0.125638171388E+04   -0.16688E-04   -0.98161E-04 47880   0.552E-02
  10 F= -.12563817E+04 E0= -.12563817E+04  d E =-.972667E-04  mag=    39.9993
       N       E                     dE             d eps       ncg     rms          rms(c)
DAV:   1    -0.125638181156E+04   -0.11438E-03   -0.44421E-02 43752   0.292E-01    0.653E-02
DAV:   2    -0.125638189351E+04   -0.81942E-04   -0.13136E-03 51756   0.568E-02    0.475E-02
DAV:   3    -0.125638188292E+04    0.10588E-04   -0.74180E-05 25284   0.190E-02
  11 F= -.12563819E+04 E0= -.12563819E+04  d E =-.169043E-03  mag=    39.9994
       N       E                     dE             d eps       ncg     rms          rms(c)
DAV:   1    -0.125638199966E+04   -0.10615E-03   -0.10010E-01 43656   0.432E-01    0.904E-02
DAV:   2    -0.125638218746E+04   -0.18780E-03   -0.32449E-03 55836   0.892E-02    0.927E-02
DAV:   3    -0.125638215217E+04    0.35288E-04   -0.19777E-04 29760   0.280E-02
  12 F= -.12563822E+04 E0= -.12563822E+04  d E =-.269253E-03  mag=    39.9994
       N       E                     dE             d eps       ncg     rms          rms(c)
DAV:   1    -0.125638226493E+04   -0.77467E-04   -0.78680E-03 43920   0.125E-01    0.580E-02
DAV:   2    -0.125638225586E+04    0.90647E-05   -0.70747E-04 50844   0.462E-02
  13 F= -.12563823E+04 E0= -.12563823E+04  d E =-.103690E-03  mag=    39.9995
       N       E                     dE             d eps       ncg     rms          rms(c)
DAV:   1    -0.125638235406E+04   -0.89133E-04   -0.44371E-02 43752   0.288E-01    0.550E-02
DAV:   2    -0.125638244347E+04   -0.89410E-04   -0.12189E-03 47688   0.497E-02    0.352E-02
DAV:   3    -0.125638243512E+04    0.83522E-05   -0.45388E-05 22932   0.130E-02
  14 F= -.12563824E+04 E0= -.12563824E+04  d E =-.179255E-03  mag=    39.9995
       N       E                     dE             d eps       ncg     rms          rms(c)
DAV:   1    -0.125638238686E+04    0.56609E-04   -0.19643E-03 39516   0.616E-02    0.133E-02
DAV:   2    -0.125638239105E+04   -0.41888E-05   -0.60683E-05 23040   0.132E-02
  15 F= -.12563824E+04 E0= -.12563824E+04  d E =0.440682E-04  mag=    39.9995
       N       E                     dE             d eps       ncg     rms          rms(c)
DAV:   1    -0.125638248271E+04   -0.95847E-04   -0.30328E-02 43776   0.239E-01    0.494E-02
DAV:   2    -0.125638254036E+04   -0.57654E-04   -0.88672E-04 48408   0.452E-02
  16 F= -.12563825E+04 E0= -.12563825E+04  d E =-.149312E-03  mag=    39.9996
       N       E                     dE             d eps       ncg     rms          rms(c)
DAV:   1    -0.125638265864E+04   -0.17593E-03   -0.12339E-01 43500   0.486E-01    0.101E-01
DAV:   2    -0.125638284394E+04   -0.18531E-03   -0.34853E-03 53832   0.938E-02    0.861E-02
DAV:   3    -0.125638281315E+04    0.30788E-04   -0.19410E-04 31020   0.282E-02
  17 F= -.12563828E+04 E0= -.12563828E+04  d E =-.272794E-03  mag=    39.9996
       N       E                     dE             d eps       ncg     rms          rms(c)
DAV:   1    -0.125638270547E+04    0.13847E-03   -0.30612E-02 43728   0.253E-01    0.951E-02
DAV:   2    -0.125638267360E+04    0.31875E-04   -0.11506E-03 51456   0.552E-02    0.579E-02
DAV:   3    -0.125638265544E+04    0.18158E-04   -0.11234E-04 30816   0.254E-02
  18 F= -.12563827E+04 E0= -.12563827E+04  d E =0.157715E-03  mag=    39.9997
       N       E                     dE             d eps       ncg     rms          rms(c)
DAV:   1    -0.125638273442E+04   -0.60825E-04   -0.68573E-02 43512   0.360E-01    0.118E-01
DAV:   2    -0.125638281562E+04   -0.81194E-04   -0.37302E-03 59496   0.113E-01    0.155E-01
DAV:   3    -0.125638276940E+04    0.46213E-04   -0.52878E-04 45288   0.370E-02
  19 F= -.12563828E+04 E0= -.12563828E+04  d E =-.113963E-03  mag=    39.9997
       N       E                     dE             d eps       ncg     rms          rms(c)
DAV:   1    -0.125638302456E+04   -0.20895E-03   -0.10190E-02 43776   0.146E-01    0.976E-02
DAV:   2    -0.125638300626E+04    0.18302E-04   -0.18436E-03 61248   0.721E-02    0.848E-02
DAV:   3    -0.125638293181E+04    0.74450E-04   -0.26736E-04 36756   0.350E-02
  20 F= -.12563829E+04 E0= -.12563829E+04  d E =-.162410E-03  mag=    39.9997
       N       E                     dE             d eps       ncg     rms          rms(c)
DAV:   1    -0.125638299501E+04    0.11250E-04   -0.69420E-02 43524   0.363E-01    0.728E-02
DAV:   2    -0.125638309544E+04   -0.10042E-03   -0.18757E-03 51852   0.759E-02    0.726E-02
DAV:   3    -0.125638309344E+04    0.19956E-05   -0.15929E-04 28536   0.230E-02
  21 F= -.12563831E+04 E0= -.12563831E+04  d E =-.161627E-03  mag=    39.9997
       N       E                     dE             d eps       ncg     rms          rms(c)
DAV:   1    -0.125638323550E+04   -0.14006E-03   -0.10859E-02 43824   0.146E-01    0.462E-02
DAV:   2    -0.125638323497E+04    0.52273E-06   -0.45934E-04 39240   0.367E-02
  22 F= -.12563832E+04 E0= -.12563832E+04  d E =-.141533E-03  mag=    39.9997
       N       E                     dE             d eps       ncg     rms          rms(c)
DAV:   1    -0.125638354388E+04   -0.30839E-03   -0.30271E-02 43848   0.249E-01    0.120E-01
DAV:   2    -0.125638338971E+04    0.15417E-03   -0.14567E-03 60120   0.672E-02    0.917E-02
DAV:   3    -0.125638335510E+04    0.34609E-04   -0.18734E-04 33720   0.302E-02
  23 F= -.12563834E+04 E0= -.12563834E+04  d E =-.120131E-03  mag=    39.9998
       N       E                     dE             d eps       ncg     rms          rms(c)
DAV:   1    -0.125638340700E+04   -0.17282E-04   -0.43855E-03 42180   0.909E-02    0.244E-02
DAV:   2    -0.125638340953E+04   -0.25338E-05   -0.11433E-04 25656   0.204E-02
  24 F= -.12563834E+04 E0= -.12563834E+04  d E =-.544250E-04  mag=    39.9998
       N       E                     dE             d eps       ncg     rms          rms(c)
DAV:   1    -0.125638346435E+04   -0.57357E-04   -0.20656E-02 43584   0.198E-01    0.365E-02
DAV:   2    -0.125638350319E+04   -0.38840E-04   -0.54156E-04 43896   0.385E-02
  25 F= -.12563835E+04 E0= -.12563835E+04  d E =-.936638E-04  mag=    39.9998
       N       E                     dE             d eps       ncg     rms          rms(c)
DAV:   1    -0.125638354285E+04   -0.78498E-04   -0.85423E-02 43368   0.397E-01    0.641E-02
DAV:   2    -0.125638374098E+04   -0.19813E-03   -0.23157E-03 53868   0.744E-02    0.627E-02
DAV:   3    -0.125638373380E+04    0.71727E-05   -0.10901E-04 25752   0.198E-02
  26 F= -.12563837E+04 E0= -.12563837E+04  d E =-.230612E-03  mag=    39.9998
       N       E                     dE             d eps       ncg     rms          rms(c)
DAV:   1    -0.125638377401E+04   -0.33035E-04   -0.99707E-02 43392   0.427E-01    0.664E-02
DAV:   2    -0.125638397640E+04   -0.20239E-03   -0.24989E-03 49644   0.705E-02    0.535E-02
DAV:   3    -0.125638396447E+04    0.11931E-04   -0.10247E-04 27600   0.190E-02
  27 F= -.12563840E+04 E0= -.12563840E+04  d E =-.230663E-03  mag=    39.9998
       N       E                     dE             d eps       ncg     rms          rms(c)
DAV:   1    -0.125638160286E+04    0.23735E-02   -0.75143E-01 43020   0.117E+00    0.157E-01
DAV:   2    -0.125638333646E+04   -0.17336E-02   -0.18921E-02 46644   0.185E-01    0.863E-02
DAV:   3    -0.125638333033E+04    0.61284E-05   -0.71861E-04 51288   0.374E-02
  28 F= -.12563833E+04 E0= -.12563833E+04  d E =0.634133E-03  mag=    39.9998
       N       E                     dE             d eps       ncg     rms          rms(c)
DAV:   1    -0.125638364249E+04   -0.30602E-03   -0.60356E-02 43224   0.357E-01    0.188E-01
DAV:   2    -0.125638344355E+04    0.19894E-03   -0.48410E-03 60588   0.126E-01    0.187E-01
DAV:   3    -0.125638331861E+04    0.12494E-03   -0.72841E-04 49956   0.488E-02    0.997E-02
DAV:   4    -0.125638329931E+04    0.19302E-04   -0.20062E-04 29880   0.230E-02
  29 F= -.12563833E+04 E0= -.12563833E+04  d E =0.310238E-04  mag=    39.9999
       N       E                     dE             d eps       ncg     rms          rms(c)
DAV:   1    -0.125638360306E+04   -0.28445E-03   -0.15400E-02 43620   0.179E-01    0.781E-02
DAV:   2    -0.125638355833E+04    0.44730E-04   -0.11344E-03 55920   0.633E-02    0.845E-02
DAV:   3    -0.125638352912E+04    0.29204E-04   -0.12298E-04 27708   0.245E-02
  30 F= -.12563835E+04 E0= -.12563835E+04  d E =-.229813E-03  mag=    39.9999
       N       E                     dE             d eps       ncg     rms          rms(c)
DAV:   1    -0.125638375200E+04   -0.19368E-03   -0.53358E-02 43344   0.323E-01    0.102E-01
DAV:   2    -0.125638375094E+04    0.10604E-05   -0.17103E-03 54804   0.673E-02    0.831E-02
DAV:   3    -0.125638372816E+04    0.22784E-04   -0.12542E-04 30852   0.244E-02
  31 F= -.12563837E+04 E0= -.12563837E+04  d E =-.199034E-03  mag=    39.9999
       N       E                     dE             d eps       ncg     rms          rms(c)
DAV:   1    -0.125638376104E+04   -0.10100E-04   -0.23231E-03 40224   0.662E-02    0.334E-02
DAV:   2    -0.125638376019E+04    0.85335E-06   -0.58041E-05 23124   0.142E-02
  32 F= -.12563838E+04 E0= -.12563838E+04  d E =-.320306E-04  mag=    39.9999
       N       E                     dE             d eps       ncg     rms          rms(c)
DAV:   1    -0.125638381497E+04   -0.53931E-04   -0.12158E-02 44352   0.164E-01    0.938E-02
DAV:   2    -0.125638370802E+04    0.10696E-03   -0.79226E-04 46032   0.469E-02    0.561E-02
DAV:   3    -0.125638368964E+04    0.18377E-04   -0.12801E-04 31056   0.276E-02
  33 F= -.12563837E+04 E0= -.12563837E+04  d E =0.705505E-04  mag=    39.9999
       N       E                     dE             d eps       ncg     rms          rms(c)
DAV:   1    -0.125638373076E+04   -0.22748E-04   -0.54705E-02 43212   0.319E-01    0.659E-02
DAV:   2    -0.125638386434E+04   -0.13357E-03   -0.19376E-03 55668   0.709E-02    0.807E-02
DAV:   3    -0.125638384887E+04    0.15467E-04   -0.15372E-04 28284   0.213E-02
  34 F= -.12563838E+04 E0= -.12563838E+04  d E =-.159232E-03  mag=    39.9999
       N       E                     dE             d eps       ncg     rms          rms(c)
DAV:   1    -0.125638403714E+04   -0.17280E-03   -0.10842E-02 43536   0.150E-01    0.778E-02
DAV:   2    -0.125638401610E+04    0.21040E-04   -0.12841E-03 58896   0.600E-02    0.799E-02
DAV:   3    -0.125638396784E+04    0.48252E-04   -0.13445E-04 28632   0.256E-02
  35 F= -.12563840E+04 E0= -.12563840E+04  d E =-.118973E-03  mag=    39.9999
       N       E                     dE             d eps       ncg     rms          rms(c)
DAV:   1    -0.125638403873E+04   -0.22635E-04   -0.34638E-02 43368   0.252E-01    0.474E-02
DAV:   2    -0.125638409839E+04   -0.59660E-04   -0.84854E-04 48564   0.446E-02
  36 F= -.12563841E+04 E0= -.12563841E+04  d E =-.130547E-03  mag=    39.9999
       N       E                     dE             d eps       ncg     rms          rms(c)
DAV:   1    -0.125638417993E+04   -0.14120E-03   -0.62652E-03 44064   0.118E-01    0.809E-02
DAV:   2    -0.125638412630E+04    0.53626E-04   -0.81946E-04 52728   0.531E-02
  37 F= -.12563841E+04 E0= -.12563841E+04  d E =-.279107E-04  mag=    39.9999
       N       E                     dE             d eps       ncg     rms          rms(c)
DAV:   1    -0.125638428279E+04   -0.10287E-03   -0.35778E-02 43452   0.266E-01    0.822E-02
DAV:   2    -0.125638429591E+04   -0.13114E-04   -0.15882E-03 58344   0.685E-02    0.744E-02
DAV:   3    -0.125638426561E+04    0.30294E-04   -0.13756E-04 28836   0.258E-02
  38 F= -.12563843E+04 E0= -.12563843E+04  d E =-.139313E-03  mag=    39.9999
       N       E                     dE             d eps       ncg     rms          rms(c)
DAV:   1    -0.125638432597E+04   -0.30063E-04   -0.11707E-02 42900   0.147E-01    0.278E-02
DAV:   2    -0.125638435046E+04   -0.24490E-04   -0.32728E-04 34872   0.283E-02
  39 F= -.12563844E+04 E0= -.12563844E+04  d E =-.848472E-04  mag=    39.9999
       N       E                     dE             d eps       ncg     rms          rms(c)
DAV:   1    -0.125638439567E+04   -0.69696E-04   -0.42840E-02 43200   0.281E-01    0.530E-02
DAV:   2    -0.125638449323E+04   -0.97560E-04   -0.13846E-03 54408   0.580E-02    0.574E-02
DAV:   3    -0.125638448265E+04    0.10583E-04   -0.90177E-05 25068   0.181E-02
  40 F= -.12563845E+04 E0= -.12563845E+04  d E =-.132184E-03  mag=    39.9999
       N       E                     dE             d eps       ncg     rms          rms(c)
DAV:   1    -0.125638452955E+04   -0.36326E-04   -0.37211E-03 40944   0.832E-02    0.288E-02
DAV:   2    -0.125638453742E+04   -0.78618E-05   -0.28090E-04 37512   0.290E-02
  41 F= -.12563845E+04 E0= -.12563845E+04  d E =-.547711E-04  mag=    39.9999
       N       E                     dE             d eps       ncg     rms          rms(c)
DAV:   1    -0.125638461049E+04   -0.80935E-04   -0.33972E-02 43296   0.252E-01    0.499E-02
DAV:   2    -0.125638467552E+04   -0.65035E-04   -0.10950E-03 50376   0.514E-02    0.459E-02
DAV:   3    -0.125638466827E+04    0.72501E-05   -0.70497E-05 23592   0.163E-02
  42 F= -.12563847E+04 E0= -.12563847E+04  d E =-.130858E-03  mag=    40.0000
       N       E                     dE             d eps       ncg     rms          rms(c)
DAV:   1    -0.125638471401E+04   -0.38489E-04   -0.58031E-03 42348   0.105E-01    0.275E-02
DAV:   2    -0.125638472370E+04   -0.96840E-05   -0.21814E-04 31860   0.262E-02
  43 F= -.12563847E+04 E0= -.12563847E+04  d E =-.554233E-04  mag=    40.0000
       N       E                     dE             d eps       ncg     rms          rms(c)
DAV:   1    -0.125638481274E+04   -0.98730E-04   -0.25577E-02 43536   0.222E-01    0.744E-02
DAV:   2    -0.125638481773E+04   -0.49876E-05   -0.94513E-04 50568   0.489E-02
  44 F= -.12563848E+04 E0= -.12563848E+04  d E =-.940332E-04  mag=    40.0000
       N       E                     dE             d eps       ncg     rms          rms(c)
DAV:   1    -0.125638488222E+04   -0.69478E-04   -0.82397E-03 43692   0.127E-01    0.361E-02
DAV:   2    -0.125638488437E+04   -0.21532E-05   -0.26378E-04 37152   0.316E-02
  45 F= -.12563849E+04 E0= -.12563849E+04  d E =-.666434E-04  mag=    40.0000
       N       E                     dE             d eps       ncg     rms          rms(c)
DAV:   1    -0.125638490617E+04   -0.23947E-04   -0.38296E-04 36720   0.290E-02    0.182E-02
DAV:   2    -0.125638490332E+04    0.28448E-05   -0.27850E-05 22656   0.116E-02
  46 F= -.12563849E+04 E0= -.12563849E+04  d E =-.189488E-04  mag=    40.0000
       N       E                     dE             d eps       ncg     rms          rms(c)
DAV:   1    -0.125638498943E+04   -0.83265E-04   -0.24536E-02 43152   0.212E-01    0.405E-02
DAV:   2    -0.125638503267E+04   -0.43241E-04   -0.68439E-04 43500   0.386E-02
  47 F= -.12563850E+04 E0= -.12563850E+04  d E =-.129351E-03  mag=    40.0000
       N       E                     dE             d eps       ncg     rms          rms(c)
DAV:   1    -0.125638508013E+04   -0.90702E-04   -0.10170E-02 43164   0.138E-01    0.394E-02
DAV:   2    -0.125638508654E+04   -0.64054E-05   -0.31398E-04 38460   0.314E-02
  48 F= -.12563851E+04 E0= -.12563851E+04  d E =-.538658E-04  mag=    40.0000
       N       E                     dE             d eps       ncg     rms          rms(c)
DAV:   1    -0.125638514655E+04   -0.66411E-04   -0.10402E-02 42660   0.139E-01    0.309E-02
DAV:   2    -0.125638516540E+04   -0.18859E-04   -0.33327E-04 35340   0.302E-02
  49 F= -.12563852E+04 E0= -.12563852E+04  d E =-.788639E-04  mag=    40.0000
       N       E                     dE             d eps       ncg     rms          rms(c)
DAV:   1    -0.125638521610E+04   -0.69555E-04   -0.11305E-02 43104   0.147E-01    0.367E-02
DAV:   2    -0.125638522868E+04   -0.12578E-04   -0.30211E-04 33468   0.288E-02
  50 F= -.12563852E+04 E0= -.12563852E+04  d E =-.632747E-04  mag=    40.0000
       N       E                     dE             d eps       ncg     rms          rms(c)
DAV:   1    -0.125638517867E+04    0.37433E-04   -0.57305E-03 42408   0.105E-01    0.260E-02
DAV:   2    -0.125638518423E+04   -0.55596E-05   -0.16163E-04 26268   0.214E-02
  51 F= -.12563852E+04 E0= -.12563852E+04  d E =0.444515E-04  mag=    40.0000
       N       E                     dE             d eps       ncg     rms          rms(c)
DAV:   1    -0.125638522850E+04   -0.49837E-04   -0.49058E-02 43200   0.300E-01    0.466E-02
DAV:   2    -0.125638534381E+04   -0.11531E-03   -0.13554E-03 49920   0.555E-02    0.440E-02
DAV:   3    -0.125638533808E+04    0.57347E-05   -0.54668E-05 23772   0.153E-02
  52 F= -.12563853E+04 E0= -.12563853E+04  d E =-.153848E-03  mag=    40.0000
       N       E                     dE             d eps       ncg     rms          rms(c)
DAV:   1    -0.125638539444E+04   -0.50634E-04   -0.27090E-02 43224   0.227E-01    0.536E-02
DAV:   2    -0.125638542906E+04   -0.34621E-04   -0.81084E-04 48192   0.444E-02
  53 F= -.12563854E+04 E0= -.12563854E+04  d E =-.909890E-04  mag=    40.0000
