       N       E                     dE             d eps       ncg     rms          rms(c)
DAV:   1     0.111118014892E+05    0.11112E+05   -0.39394E+05 21504   0.125E+03
DAV:   2     0.104623525675E+04   -0.10066E+05   -0.92656E+04 22212   0.350E+02
DAV:   3    -0.142682079057E+04   -0.24731E+04   -0.23950E+04 24228   0.181E+02
DAV:   4    -0.164747035289E+04   -0.22065E+03   -0.21727E+03 32364   0.606E+01
DAV:   5    -0.165585056053E+04   -0.83802E+01   -0.82650E+01 33876   0.136E+01
DAV:   6    -0.165622794409E+04   -0.37738E+00   -0.37419E+00 34032   0.248E+00
DAV:   7    -0.165624965782E+04   -0.21714E-01   -0.21616E-01 34188   0.603E-01
DAV:   8    -0.165625116576E+04   -0.15079E-02   -0.15044E-02 31476   0.136E-01
DAV:   9    -0.165625128160E+04   -0.11584E-03   -0.11566E-03 22044   0.397E-02
DAV:  10    -0.165625129170E+04   -0.10103E-04   -0.10071E-04 18048   0.152E-02
DAV:  11    -0.165625129401E+04   -0.23004E-05   -0.22859E-05 16932   0.982E-03
DAV:  12    -0.165625129523E+04   -0.12223E-05   -0.12156E-05 16416   0.706E-03    0.166E+02
DAV:  13    -0.122267304215E+04    0.43358E+03   -0.25471E+03 32004   0.830E+01    0.103E+02
DAV:  14    -0.125869497812E+04   -0.36022E+02   -0.69943E+02 34428   0.473E+01    0.711E+01
DAV:  15    -0.125660681073E+04    0.20882E+01   -0.91034E+01 31188   0.180E+01    0.441E+01
DAV:  16    -0.125849689816E+04   -0.18901E+01   -0.65438E+01 34368   0.204E+01    0.353E+01
DAV:  17    -0.125660587922E+04    0.18910E+01   -0.22387E+01 32544   0.893E+00    0.124E+01
DAV:  18    -0.125585236938E+04    0.75351E+00   -0.10847E+01 33240   0.708E+00    0.635E+00
DAV:  19    -0.125564970709E+04    0.20266E+00   -0.27917E+00 30852   0.280E+00    0.359E+00
DAV:  20    -0.125567476438E+04   -0.25057E-01   -0.33053E-01 31524   0.103E+00    0.125E+00
DAV:  21    -0.125569772566E+04   -0.22961E-01   -0.20008E-01 31836   0.705E-01    0.875E-01
DAV:  22    -0.125569264770E+04    0.50780E-02   -0.42462E-02 30744   0.381E-01    0.512E-01
DAV:  23    -0.125569404559E+04   -0.13979E-02   -0.33892E-02 31992   0.278E-01    0.317E-01
DAV:  24    -0.125569410492E+04   -0.59328E-04   -0.49027E-03 29244   0.138E-01    0.195E-01
DAV:  25    -0.125569397070E+04    0.13421E-03   -0.26044E-03 30816   0.736E-02    0.878E-02
DAV:  26    -0.125569400002E+04   -0.29311E-04   -0.47811E-04 21096   0.331E-02
   1 F= -.12556940E+04 E0= -.12556940E+04  d E =-.125569E+04  mag=    39.9831
       N       E                     dE             d eps       ncg     rms          rms(c)
DAV:   1    -0.125576457321E+04   -0.70603E-01   -0.38517E+00 21960   0.291E+00    0.174E+00
DAV:   2    -0.125573338892E+04    0.31184E-01   -0.18200E-01 30804   0.828E-01    0.136E+00
DAV:   3    -0.125572347432E+04    0.99146E-02   -0.57127E-02 30792   0.442E-01    0.698E-01
DAV:   4    -0.125571913242E+04    0.43419E-02   -0.20502E-02 31008   0.222E-01    0.328E-01
DAV:   5    -0.125571834560E+04    0.78682E-03   -0.54994E-03 31356   0.135E-01    0.110E-01
DAV:   6    -0.125571839918E+04   -0.53574E-04   -0.19595E-03 31140   0.731E-02    0.102E-01
DAV:   7    -0.125571838547E+04    0.13703E-04   -0.14174E-04 13848   0.374E-02
   2 F= -.12557184E+04 E0= -.12557184E+04  d E =-.243855E-01  mag=    39.9867
       N       E                     dE             d eps       ncg     rms          rms(c)
DAV:   1    -0.125572530204E+04   -0.69029E-02   -0.53961E+00 21648   0.321E+00    0.179E+00
DAV:   2    -0.125572391609E+04    0.13859E-02   -0.37291E-01 29088   0.127E+00    0.186E+00
DAV:   3    -0.125571864367E+04    0.52724E-02   -0.72073E-02 29976   0.488E-01    0.114E+00
DAV:   4    -0.125571605354E+04    0.25901E-02   -0.19216E-02 31524   0.241E-01    0.760E-01
DAV:   5    -0.125571470239E+04    0.13511E-02   -0.54939E-03 29520   0.219E-01    0.377E-01
DAV:   6    -0.125571484339E+04   -0.14100E-03   -0.38777E-03 31764   0.131E-01    0.216E-01
DAV:   7    -0.125571488681E+04   -0.43419E-04   -0.74347E-04 25200   0.432E-02
   3 F= -.12557149E+04 E0= -.12557149E+04  d E =0.349867E-02  mag=    39.9898
       N       E                     dE             d eps       ncg     rms          rms(c)
DAV:   1    -0.125573005286E+04   -0.15209E-01   -0.26188E-01 21984   0.738E-01    0.448E-01
DAV:   2    -0.125572879948E+04    0.12534E-02   -0.21365E-02 29652   0.299E-01    0.485E-01
DAV:   3    -0.125572818926E+04    0.61021E-03   -0.41958E-03 30144   0.112E-01    0.298E-01
DAV:   4    -0.125572793904E+04    0.25023E-03   -0.22283E-03 30708   0.759E-02    0.178E-01
DAV:   5    -0.125572780227E+04    0.13677E-03   -0.51222E-04 24864   0.596E-02    0.989E-02
DAV:   6    -0.125572781103E+04   -0.87637E-05   -0.34441E-04 19236   0.301E-02
   4 F= -.12557278E+04 E0= -.12557278E+04  d E =-.129242E-01  mag=    39.9919
       N       E                     dE             d eps       ncg     rms          rms(c)
DAV:   1    -0.125575351318E+04   -0.25711E-01   -0.24495E+00 22236   0.228E+00    0.123E+00
DAV:   2    -0.125573614866E+04    0.17365E-01   -0.13249E-01 31308   0.633E-01    0.852E-01
DAV:   3    -0.125573319594E+04    0.29527E-02   -0.26757E-02 30360   0.315E-01    0.368E-01
DAV:   4    -0.125573191274E+04    0.12832E-02   -0.44071E-03 30420   0.114E-01    0.165E-01
DAV:   5    -0.125573171852E+04    0.19422E-03   -0.20731E-03 31836   0.787E-02    0.111E-01
DAV:   6    -0.125573165195E+04    0.66570E-04   -0.32202E-04 19296   0.367E-02
   5 F= -.12557317E+04 E0= -.12557317E+04  d E =-.384092E-02  mag=    39.9934
       N       E                     dE             d eps       ncg     rms          rms(c)
DAV:   1    -0.125574571854E+04   -0.14000E-01   -0.10422E+00 21732   0.143E+00    0.680E-01
DAV:   2    -0.125574401856E+04    0.17000E-02   -0.55745E-02 29052   0.406E-01    0.653E-01
DAV:   3    -0.125574307945E+04    0.93912E-03   -0.57181E-03 29292   0.154E-01    0.389E-01
DAV:   4    -0.125574254526E+04    0.53419E-03   -0.45129E-03 28812   0.982E-02    0.235E-01
DAV:   5    -0.125574241128E+04    0.13397E-03   -0.10761E-03 29040   0.686E-02    0.108E-01
DAV:   6    -0.125574241814E+04   -0.68633E-05   -0.76198E-04 27804   0.489E-02
   6 F= -.12557424E+04 E0= -.12557424E+04  d E =-.107662E-01  mag=    39.9948
       N       E                     dE             d eps       ncg     rms          rms(c)
DAV:   1    -0.125574608204E+04   -0.36708E-02   -0.14765E+00 21672   0.172E+00    0.521E-01
DAV:   2    -0.125574713664E+04   -0.10546E-02   -0.48717E-02 30084   0.376E-01    0.417E-01
DAV:   3    -0.125574668926E+04    0.44737E-03   -0.68253E-03 29964   0.141E-01    0.201E-01
DAV:   4    -0.125574629212E+04    0.39714E-03   -0.15066E-03 30960   0.655E-02    0.120E-01
DAV:   5    -0.125574617868E+04    0.11344E-03   -0.53805E-04 23580   0.476E-02    0.590E-02
DAV:   6    -0.125574617142E+04    0.72570E-05   -0.11732E-04 12696   0.263E-02
   7 F= -.12557462E+04 E0= -.12557462E+04  d E =-.375328E-02  mag=    39.9958
       N       E                     dE             d eps       ncg     rms          rms(c)
DAV:   1    -0.125574653376E+04   -0.35508E-03   -0.25918E-01 21840   0.706E-01    0.134E-01
DAV:   2    -0.125574706799E+04   -0.53423E-03   -0.87958E-03 27792   0.171E-01    0.165E-01
DAV:   3    -0.125574709198E+04   -0.23990E-04   -0.12772E-03 28908   0.536E-02    0.109E-01
DAV:   4    -0.125574701697E+04    0.75008E-04   -0.18552E-04 15540   0.250E-02
   8 F= -.12557470E+04 E0= -.12557470E+04  d E =-.845550E-03  mag=    39.9963
       N       E                     dE             d eps       ncg     rms          rms(c)
DAV:   1    -0.125574763642E+04   -0.54444E-03   -0.99293E-02 21840   0.437E-01    0.872E-02
DAV:   2    -0.125574788588E+04   -0.24946E-03   -0.32175E-03 29652   0.891E-02    0.843E-02
DAV:   3    -0.125574784476E+04    0.41125E-04   -0.15064E-04 14220   0.274E-02
   9 F= -.12557478E+04 E0= -.12557478E+04  d E =-.827788E-03  mag=    39.9966
       N       E                     dE             d eps       ncg     rms          rms(c)
DAV:   1    -0.125574797864E+04   -0.92752E-04   -0.40644E-03 21960   0.911E-02    0.393E-02
DAV:   2    -0.125574797022E+04    0.84107E-05   -0.12872E-04 11904   0.209E-02
  10 F= -.12557480E+04 E0= -.12557480E+04  d E =-.125466E-03  mag=    39.9968
       N       E                     dE             d eps       ncg     rms          rms(c)
DAV:   1    -0.125574836961E+04   -0.39098E-03   -0.27286E-01 21696   0.728E-01    0.126E-01
DAV:   2    -0.125574899923E+04   -0.62962E-03   -0.73134E-03 26520   0.127E-01    0.856E-02
DAV:   3    -0.125574897800E+04    0.21228E-04   -0.22544E-04 15876   0.314E-02
  11 F= -.12557490E+04 E0= -.12557490E+04  d E =-.100778E-02  mag=    39.9970
       N       E                     dE             d eps       ncg     rms          rms(c)
DAV:   1    -0.125574800138E+04    0.99785E-03   -0.11924E-01 21696   0.483E-01    0.805E-02
DAV:   2    -0.125574830887E+04   -0.30749E-03   -0.33821E-03 24504   0.863E-02    0.376E-02
DAV:   3    -0.125574831087E+04   -0.20034E-05   -0.83290E-05 11760   0.180E-02
  12 F= -.12557483E+04 E0= -.12557483E+04  d E =0.667131E-03  mag=    39.9973
       N       E                     dE             d eps       ncg     rms          rms(c)
DAV:   1    -0.125574843369E+04   -0.12482E-03   -0.33387E-01 21672   0.810E-01    0.156E-01
DAV:   2    -0.125574932589E+04   -0.89220E-03   -0.10151E-02 26304   0.162E-01    0.139E-01
DAV:   3    -0.125574931072E+04    0.15166E-04   -0.54707E-04 22512   0.478E-02
  13 F= -.12557493E+04 E0= -.12557493E+04  d E =-.999851E-03  mag=    39.9975
       N       E                     dE             d eps       ncg     rms          rms(c)
DAV:   1    -0.125574930734E+04    0.18548E-04   -0.23734E-03 22320   0.706E-02    0.560E-02
DAV:   2    -0.125574929703E+04    0.10312E-04   -0.20951E-04 16140   0.289E-02
  14 F= -.12557493E+04 E0= -.12557493E+04  d E =0.136938E-04  mag=    39.9976
       N       E                     dE             d eps       ncg     rms          rms(c)
DAV:   1    -0.125574949982E+04   -0.19248E-03   -0.26851E-01 21696   0.730E-01    0.180E-01
DAV:   2    -0.125575003354E+04   -0.53372E-03   -0.82149E-03 26232   0.137E-01    0.107E-01
DAV:   3    -0.125575002504E+04    0.85042E-05   -0.43650E-04 21696   0.426E-02
  15 F= -.12557500E+04 E0= -.12557500E+04  d E =-.728006E-03  mag=    39.9978
       N       E                     dE             d eps       ncg     rms          rms(c)
DAV:   1    -0.125575038209E+04   -0.34855E-03   -0.13063E-01 21696   0.504E-01    0.121E-01
DAV:   2    -0.125575065270E+04   -0.27061E-03   -0.39089E-03 27432   0.959E-02    0.791E-02
DAV:   3    -0.125575063235E+04    0.20355E-04   -0.15991E-04 15168   0.294E-02
  16 F= -.12557506E+04 E0= -.12557506E+04  d E =-.607309E-03  mag=    39.9980
       N       E                     dE             d eps       ncg     rms          rms(c)
DAV:   1    -0.125575082928E+04   -0.17658E-03   -0.20307E-02 21816   0.203E-01    0.896E-02
DAV:   2    -0.125575082122E+04    0.80566E-05   -0.76964E-04 25308   0.537E-02
  17 F= -.12557508E+04 E0= -.12557508E+04  d E =-.188873E-03  mag=    39.9981
       N       E                     dE             d eps       ncg     rms          rms(c)
DAV:   1    -0.125575060506E+04    0.22422E-03   -0.39487E-02 21720   0.254E-01    0.137E-01
DAV:   2    -0.125575077817E+04   -0.17311E-03   -0.17775E-03 28044   0.778E-02    0.113E-01
DAV:   3    -0.125575076876E+04    0.94093E-05   -0.25819E-04 18480   0.313E-02
  18 F= -.12557508E+04 E0= -.12557508E+04  d E =0.524611E-04  mag=    39.9983
       N       E                     dE             d eps       ncg     rms          rms(c)
DAV:   1    -0.125575070855E+04    0.69614E-04   -0.15960E-01 21672   0.557E-01    0.135E-01
DAV:   2    -0.125575112865E+04   -0.42010E-03   -0.47198E-03 25668   0.109E-01    0.119E-01
DAV:   3    -0.125575112482E+04    0.38266E-05   -0.22478E-04 17448   0.279E-02
  19 F= -.12557511E+04 E0= -.12557511E+04  d E =-.356064E-03  mag=    39.9985
       N       E                     dE             d eps       ncg     rms          rms(c)
DAV:   1    -0.125575149311E+04   -0.36446E-03   -0.13660E-01 21696   0.517E-01    0.129E-01
DAV:   2    -0.125575171905E+04   -0.22595E-03   -0.43766E-03 26844   0.103E-01    0.911E-02
DAV:   3    -0.125575168985E+04    0.29201E-04   -0.17613E-04 15216   0.313E-02
  20 F= -.12557517E+04 E0= -.12557517E+04  d E =-.565029E-03  mag=    39.9986
       N       E                     dE             d eps       ncg     rms          rms(c)
DAV:   1    -0.125575013723E+04    0.15818E-02   -0.11181E+00 21576   0.147E+00    0.242E-01
DAV:   2    -0.125575306319E+04   -0.29260E-02   -0.29072E-02 25392   0.252E-01    0.140E-01
DAV:   3    -0.125575311492E+04   -0.51723E-04   -0.12585E-03 28560   0.524E-02    0.906E-02
DAV:   4    -0.125575305376E+04    0.61153E-04   -0.76731E-05 13032   0.200E-02
  21 F= -.12557531E+04 E0= -.12557531E+04  d E =-.136391E-02  mag=    39.9988
       N       E                     dE             d eps       ncg     rms          rms(c)
DAV:   1    -0.125574148360E+04    0.11631E-01   -0.57555E+00 21504   0.334E+00    0.557E-01
DAV:   2    -0.125575570237E+04   -0.14219E-01   -0.15210E-01 24912   0.574E-01    0.342E-01
DAV:   3    -0.125575578871E+04   -0.86343E-04   -0.63336E-03 30732   0.128E-01    0.171E-01
DAV:   4    -0.125575544776E+04    0.34096E-03   -0.11695E-03 29064   0.591E-02    0.117E-01
DAV:   5    -0.125575531807E+04    0.12968E-03   -0.70138E-04 24912   0.509E-02    0.541E-02
DAV:   6    -0.125575532152E+04   -0.34519E-05   -0.17960E-04 13812   0.272E-02
  22 F= -.12557553E+04 E0= -.12557553E+04  d E =-.226776E-02  mag=    39.9990
       N       E                     dE             d eps       ncg     rms          rms(c)
DAV:   1    -0.125575490074E+04    0.41733E-03   -0.32251E-01 21576   0.804E-01    0.234E-01
DAV:   2    -0.125575539541E+04   -0.49467E-03   -0.11162E-02 29148   0.176E-01    0.201E-01
DAV:   3    -0.125575531640E+04    0.79009E-04   -0.94492E-04 28152   0.615E-02
  23 F= -.12557553E+04 E0= -.12557553E+04  d E =0.512270E-05  mag=    39.9991
       N       E                     dE             d eps       ncg     rms          rms(c)
DAV:   1    -0.125575310520E+04    0.22902E-02   -0.55135E-01 21528   0.103E+00    0.168E-01
DAV:   2    -0.125575445485E+04   -0.13496E-02   -0.14080E-02 25584   0.175E-01    0.102E-01
DAV:   3    -0.125575444657E+04    0.82730E-05   -0.49994E-04 21936   0.321E-02
  24 F= -.12557544E+04 E0= -.12557544E+04  d E =0.869827E-03  mag=    39.9992
       N       E                     dE             d eps       ncg     rms          rms(c)
DAV:   1    -0.125575440536E+04    0.49485E-04   -0.11322E-01 21576   0.473E-01    0.122E-01
DAV:   2    -0.125575467857E+04   -0.27321E-03   -0.41863E-03 27636   0.100E-01    0.956E-02
DAV:   3    -0.125575465452E+04    0.24054E-04   -0.19568E-04 16344   0.289E-02
  25 F= -.12557547E+04 E0= -.12557547E+04  d E =-.207944E-03  mag=    39.9993
       N       E                     dE             d eps       ncg     rms          rms(c)
DAV:   1    -0.125575389165E+04    0.78692E-03   -0.17164E-01 21576   0.584E-01    0.149E-01
DAV:   2    -0.125575413825E+04   -0.24660E-03   -0.50343E-03 26700   0.108E-01    0.916E-02
DAV:   3    -0.125575409300E+04    0.45248E-04   -0.16591E-04 16044   0.301E-02
  26 F= -.12557541E+04 E0= -.12557541E+04  d E =0.561513E-03  mag=    39.9993
       N       E                     dE             d eps       ncg     rms          rms(c)
DAV:   1    -0.125575467418E+04   -0.53593E-03   -0.18290E-01 21576   0.606E-01    0.171E-01
DAV:   2    -0.125575485186E+04   -0.17768E-03   -0.57120E-03 27924   0.122E-01    0.114E-01
DAV:   3    -0.125575480187E+04    0.49985E-04   -0.41569E-04 21504   0.419E-02
  27 F= -.12557548E+04 E0= -.12557548E+04  d E =-.708869E-03  mag=    39.9994
       N       E                     dE             d eps       ncg     rms          rms(c)
DAV:   1    -0.125575463900E+04    0.21285E-03   -0.90591E-03 21804   0.140E-01    0.617E-02
DAV:   2    -0.125575463679E+04    0.22151E-05   -0.32248E-04 16908   0.378E-02
  28 F= -.12557546E+04 E0= -.12557546E+04  d E =0.165084E-03  mag=    39.9994
       N       E                     dE             d eps       ncg     rms          rms(c)
DAV:   1    -0.125575427955E+04    0.35946E-03   -0.71154E-02 21600   0.376E-01    0.118E-01
DAV:   2    -0.125575432279E+04   -0.43240E-04   -0.27511E-03 29244   0.889E-02    0.118E-01
DAV:   3    -0.125575427280E+04    0.49990E-04   -0.21919E-04 17760   0.303E-02
  29 F= -.12557543E+04 E0= -.12557543E+04  d E =0.363994E-03  mag=    39.9995
       N       E                     dE             d eps       ncg     rms          rms(c)
DAV:   1    -0.125575422310E+04    0.99689E-04   -0.93540E-02 21600   0.427E-01    0.900E-02
DAV:   2    -0.125575446772E+04   -0.24462E-03   -0.31665E-03 27468   0.884E-02    0.804E-02
DAV:   3    -0.125575444684E+04    0.20881E-04   -0.16585E-04 13800   0.247E-02
  30 F= -.12557544E+04 E0= -.12557544E+04  d E =-.174044E-03  mag=    39.9995
       N       E                     dE             d eps       ncg     rms          rms(c)
DAV:   1    -0.125575504275E+04   -0.57503E-03   -0.28711E-02 21888   0.255E-01    0.177E-01
DAV:   2    -0.125575473242E+04    0.31033E-03   -0.23617E-03 31272   0.944E-02    0.155E-01
DAV:   3    -0.125575465338E+04    0.79048E-04   -0.37609E-04 21000   0.403E-02
  31 F= -.12557547E+04 E0= -.12557547E+04  d E =-.206537E-03  mag=    39.9996
       N       E                     dE             d eps       ncg     rms          rms(c)
DAV:   1    -0.125575460544E+04    0.12698E-03   -0.78153E-02 21600   0.395E-01    0.132E-01
DAV:   2    -0.125575470807E+04   -0.10262E-03   -0.24910E-03 29472   0.866E-02    0.105E-01
DAV:   3    -0.125575468813E+04    0.19939E-04   -0.17298E-04 15204   0.288E-02
  32 F= -.12557547E+04 E0= -.12557547E+04  d E =-.347520E-04  mag=    39.9996
       N       E                     dE             d eps       ncg     rms          rms(c)
DAV:   1    -0.125575528804E+04   -0.57998E-03   -0.47364E-01 21780   0.986E-01    0.405E-01
DAV:   2    -0.125575451013E+04    0.77791E-03   -0.21575E-02 29736   0.240E-01    0.283E-01
DAV:   3    -0.125575421521E+04    0.29493E-03   -0.30995E-03 29868   0.109E-01    0.131E-01
DAV:   4    -0.125575407365E+04    0.14156E-03   -0.87909E-04 29388   0.511E-02    0.944E-02
DAV:   5    -0.125575402680E+04    0.46847E-04   -0.14204E-04 14196   0.261E-02
  33 F= -.12557540E+04 E0= -.12557540E+04  d E =0.661325E-03  mag=    39.9997
       N       E                     dE             d eps       ncg     rms          rms(c)
DAV:   1    -0.125575626742E+04   -0.21938E-02   -0.96841E-02 21912   0.470E-01    0.288E-01
DAV:   2    -0.125575538529E+04    0.88213E-03   -0.85994E-03 31584   0.165E-01    0.247E-01
DAV:   3    -0.125575516194E+04    0.22334E-03   -0.15192E-03 30768   0.738E-02    0.966E-02
DAV:   4    -0.125575511927E+04    0.42669E-04   -0.15331E-04 15888   0.289E-02
  34 F= -.12557551E+04 E0= -.12557551E+04  d E =-.109247E-02  mag=    39.9997
       N       E                     dE             d eps       ncg     rms          rms(c)
DAV:   1    -0.125575720288E+04   -0.20409E-02   -0.20814E-01 21936   0.692E-01    0.409E-01
DAV:   2    -0.125575528928E+04    0.19136E-02   -0.11722E-02 30132   0.193E-01    0.287E-01
DAV:   3    -0.125575495747E+04    0.33181E-03   -0.23896E-03 31164   0.976E-02    0.150E-01
DAV:   4    -0.125575484461E+04    0.11286E-03   -0.10333E-03 30696   0.516E-02    0.932E-02
DAV:   5    -0.125575480600E+04    0.38608E-04   -0.13976E-04 13812   0.247E-02
  35 F= -.12557548E+04 E0= -.12557548E+04  d E =0.313270E-03  mag=    39.9998
       N       E                     dE             d eps       ncg     rms          rms(c)
DAV:   1    -0.125575637102E+04   -0.15264E-02   -0.12957E-01 21576   0.509E-01    0.259E-01
DAV:   2    -0.125575570142E+04    0.66960E-03   -0.60809E-03 28332   0.152E-01    0.139E-01
DAV:   3    -0.125575569292E+04    0.84956E-05   -0.18794E-03 31344   0.783E-02    0.940E-02
DAV:   4    -0.125575564195E+04    0.50974E-04   -0.48442E-04 23340   0.346E-02
  36 F= -.12557556E+04 E0= -.12557556E+04  d E =-.835943E-03  mag=    39.9998
       N       E                     dE             d eps       ncg     rms          rms(c)
DAV:   1    -0.125575623300E+04   -0.54008E-03   -0.48571E-02 21768   0.315E-01    0.145E-01
DAV:   2    -0.125575616524E+04    0.67762E-04   -0.28274E-03 28932   0.955E-02    0.140E-01
DAV:   3    -0.125575608833E+04    0.76909E-04   -0.35325E-04 20820   0.399E-02
  37 F= -.12557561E+04 E0= -.12557561E+04  d E =-.446383E-03  mag=    39.9998
       N       E                     dE             d eps       ncg     rms          rms(c)
DAV:   1    -0.125575699852E+04   -0.83328E-03   -0.65746E-01 21552   0.113E+00    0.558E-01
DAV:   2    -0.125575687651E+04    0.12201E-03   -0.17978E-02 29244   0.236E-01    0.348E-01
DAV:   3    -0.125575648405E+04    0.39246E-03   -0.25093E-03 30036   0.887E-02    0.177E-01
DAV:   4    -0.125575603185E+04    0.45220E-03   -0.14946E-03 30624   0.618E-02    0.928E-02
DAV:   5    -0.125575597790E+04    0.53955E-04   -0.23679E-04 16200   0.342E-02
  38 F= -.12557560E+04 E0= -.12557560E+04  d E =0.110432E-03  mag=    39.9998
       N       E                     dE             d eps       ncg     rms          rms(c)
DAV:   1    -0.125575709164E+04   -0.10598E-02   -0.11502E-01 21552   0.464E-01    0.289E-01
DAV:   2    -0.125575676582E+04    0.32582E-03   -0.49085E-03 29676   0.130E-01    0.209E-01
DAV:   3    -0.125575668188E+04    0.83940E-04   -0.10553E-03 28176   0.595E-02    0.108E-01
DAV:   4    -0.125575658562E+04    0.96262E-04   -0.27301E-04 18396   0.321E-02
  39 F= -.12557566E+04 E0= -.12557566E+04  d E =-.607717E-03  mag=    39.9999
       N       E                     dE             d eps       ncg     rms          rms(c)
DAV:   1    -0.125575749501E+04   -0.81313E-03   -0.12188E-01 21720   0.513E-01    0.246E-01
DAV:   2    -0.125575701905E+04    0.47596E-03   -0.55656E-03 30576   0.140E-01    0.212E-01
DAV:   3    -0.125575688450E+04    0.13455E-03   -0.65916E-04 23616   0.565E-02    0.100E-01
DAV:   4    -0.125575681219E+04    0.72304E-04   -0.33706E-04 19596   0.319E-02
  40 F= -.12557568E+04 E0= -.12557568E+04  d E =-.226579E-03  mag=    39.9999
       N       E                     dE             d eps       ncg     rms          rms(c)
DAV:   1    -0.125575727260E+04   -0.38810E-03   -0.75154E-02 21576   0.385E-01    0.192E-01
DAV:   2    -0.125575704822E+04    0.22438E-03   -0.32233E-03 30564   0.103E-01    0.119E-01
DAV:   3    -0.125575701339E+04    0.34825E-04   -0.49571E-04 22788   0.502E-02
  41 F= -.12557570E+04 E0= -.12557570E+04  d E =-.201199E-03  mag=    39.9999
       N       E                     dE             d eps       ncg     rms          rms(c)
DAV:   1    -0.125575734960E+04   -0.30139E-03   -0.54085E-02 21672   0.340E-01    0.184E-01
DAV:   2    -0.125575709971E+04    0.24990E-03   -0.43494E-03 30720   0.125E-01    0.174E-01
DAV:   3    -0.125575700607E+04    0.93633E-04   -0.78633E-04 25548   0.492E-02
  42 F= -.12557570E+04 E0= -.12557570E+04  d E =0.732009E-05  mag=    39.9999
       N       E                     dE             d eps       ncg     rms          rms(c)
DAV:   1    -0.125575747968E+04   -0.37998E-03   -0.13406E-02 22764   0.180E-01    0.120E-01
DAV:   2    -0.125575732296E+04    0.15672E-03   -0.19447E-03 31488   0.869E-02    0.120E-01
DAV:   3    -0.125575726335E+04    0.59610E-04   -0.24711E-04 18000   0.324E-02
  43 F= -.12557573E+04 E0= -.12557573E+04  d E =-.257278E-03  mag=    39.9999
       N       E                     dE             d eps       ncg     rms          rms(c)
DAV:   1    -0.125575720245E+04    0.12051E-03   -0.13968E-01 21552   0.523E-01    0.137E-01
DAV:   2    -0.125575752249E+04   -0.32004E-03   -0.45503E-03 27828   0.114E-01    0.148E-01
DAV:   3    -0.125575749606E+04    0.26425E-04   -0.26425E-04 17940   0.328E-02
  44 F= -.12557575E+04 E0= -.12557575E+04  d E =-.232714E-03  mag=    39.9999
       N       E                     dE             d eps       ncg     rms          rms(c)
DAV:   1    -0.125575711991E+04    0.40258E-03   -0.47223E-02 21576   0.309E-01    0.103E-01
DAV:   2    -0.125575722538E+04   -0.10547E-03   -0.16789E-03 27972   0.690E-02    0.976E-02
DAV:   3    -0.125575721859E+04    0.67916E-05   -0.98954E-05 13176   0.219E-02
  45 F= -.12557572E+04 E0= -.12557572E+04  d E =0.277472E-03  mag=    39.9999
       N       E                     dE             d eps       ncg     rms          rms(c)
DAV:   1    -0.125575626243E+04    0.96295E-03   -0.22227E-01 21528   0.608E-01    0.227E-01
DAV:   2    -0.125575704802E+04   -0.78558E-03   -0.12735E-02 28512   0.182E-01    0.320E-01
DAV:   3    -0.125575694485E+04    0.10316E-03   -0.11025E-03 26160   0.517E-02    0.251E-01
DAV:   4    -0.125575679216E+04    0.15269E-03   -0.15641E-03 26052   0.567E-02    0.186E-01
DAV:   5    -0.125575682836E+04   -0.36196E-04   -0.70636E-04 25164   0.432E-02
  46 F= -.12557568E+04 E0= -.12557568E+04  d E =0.390232E-03  mag=    39.9999
       N       E                     dE             d eps       ncg     rms          rms(c)
DAV:   1    -0.125575765940E+04   -0.86724E-03   -0.11581E-01 21528   0.430E-01    0.185E-01
DAV:   2    -0.125575780413E+04   -0.14473E-03   -0.47381E-03 25932   0.120E-01    0.204E-01
DAV:   3    -0.125575775528E+04    0.48858E-04   -0.39513E-04 22656   0.369E-02
  47 F= -.12557578E+04 E0= -.12557578E+04  d E =-.926916E-03  mag=    39.9999
       N       E                     dE             d eps       ncg     rms          rms(c)
DAV:   1    -0.125575782182E+04   -0.17686E-04   -0.59914E-02 21552   0.345E-01    0.211E-01
DAV:   2    -0.125575761172E+04    0.21010E-03   -0.31752E-03 31164   0.102E-01    0.135E-01
DAV:   3    -0.125575756324E+04    0.48480E-04   -0.62113E-04 24552   0.518E-02
  48 F= -.12557576E+04 E0= -.12557576E+04  d E =0.192037E-03  mag=    40.0000
       N       E                     dE             d eps       ncg     rms          rms(c)
DAV:   1    -0.125575825816E+04   -0.64644E-03   -0.54117E-02 21624   0.333E-01    0.202E-01
DAV:   2    -0.125575803761E+04    0.22055E-03   -0.36041E-03 31548   0.115E-01    0.165E-01
DAV:   3    -0.125575798421E+04    0.53396E-04   -0.48988E-04 22644   0.506E-02
  49 F= -.12557580E+04 E0= -.12557580E+04  d E =-.420972E-03  mag=    40.0000
       N       E                     dE             d eps       ncg     rms          rms(c)
DAV:   1    -0.125575804747E+04   -0.98676E-05   -0.12619E-01 21528   0.503E-01    0.172E-01
DAV:   2    -0.125575811164E+04   -0.64164E-04   -0.43509E-03 28908   0.112E-01    0.124E-01
DAV:   3    -0.125575806996E+04    0.41680E-04   -0.26592E-04 18132   0.386E-02
  50 F= -.12557581E+04 E0= -.12557581E+04  d E =-.857479E-04  mag=    40.0000
       N       E                     dE             d eps       ncg     rms          rms(c)
DAV:   1    -0.125575805994E+04    0.51696E-04   -0.14027E-01 21528   0.523E-01    0.112E-01
DAV:   2    -0.125575836720E+04   -0.30725E-03   -0.43018E-03 28284   0.104E-01    0.984E-02
DAV:   3    -0.125575833832E+04    0.28873E-04   -0.22482E-04 16188   0.292E-02
  51 F= -.12557583E+04 E0= -.12557583E+04  d E =-.268364E-03  mag=    40.0000
       N       E                     dE             d eps       ncg     rms          rms(c)
DAV:   1    -0.125575736913E+04    0.99807E-03   -0.24432E-01 21528   0.690E-01    0.114E-01
DAV:   2    -0.125575801285E+04   -0.64372E-03   -0.68487E-03 25296   0.121E-01    0.675E-02
DAV:   3    -0.125575800923E+04    0.36256E-05   -0.17035E-04 14820   0.222E-02
  52 F= -.12557580E+04 E0= -.12557580E+04  d E =0.329097E-03  mag=    40.0000
       N       E                     dE             d eps       ncg     rms          rms(c)
DAV:   1    -0.125576017877E+04   -0.21659E-02   -0.82611E-02 22524   0.450E-01    0.373E-01
DAV:   2    -0.125575833197E+04    0.18468E-02   -0.10385E-02 31632   0.185E-01    0.288E-01
DAV:   3    -0.125575800685E+04    0.32512E-03   -0.19709E-03 30900   0.874E-02    0.117E-01
DAV:   4    -0.125575790690E+04    0.99951E-04   -0.24010E-04 17316   0.326E-02
  53 F= -.12557579E+04 E0= -.12557579E+04  d E =0.102327E-03  mag=    40.0000
       N       E                     dE             d eps       ncg     rms          rms(c)
DAV:   1    -0.125575877725E+04   -0.77040E-03   -0.19250E-01 21624   0.625E-01    0.220E-01
DAV:   2    -0.125575865185E+04    0.12540E-03   -0.79576E-03 30072   0.157E-01    0.179E-01
DAV:   3    -0.125575853719E+04    0.11466E-03   -0.96408E-04 27600   0.617E-02    0.690E-02
DAV:   4    -0.125575850839E+04    0.28802E-04   -0.84220E-05 13320   0.209E-02
  54 F= -.12557585E+04 E0= -.12557585E+04  d E =-.601488E-03  mag=    40.0000
       N       E                     dE             d eps       ncg     rms          rms(c)
DAV:   1    -0.125575860202E+04   -0.64833E-04   -0.23096E-02 22092   0.222E-01    0.129E-01
DAV:   2    -0.125575849347E+04    0.10855E-03   -0.11855E-03 26616   0.616E-02    0.956E-02
DAV:   3    -0.125575847761E+04    0.15859E-04   -0.12431E-04 15060   0.292E-02
  55 F= -.12557585E+04 E0= -.12557585E+04  d E =0.307745E-04  mag=    40.0000
       N       E                     dE             d eps       ncg     rms          rms(c)
DAV:   1    -0.125575857403E+04   -0.80555E-04   -0.12270E-02 21528   0.152E-01    0.530E-02
DAV:   2    -0.125575861739E+04   -0.43366E-04   -0.51202E-04 21036   0.374E-02
  56 F= -.12557586E+04 E0= -.12557586E+04  d E =-.139780E-03  mag=    40.0000
       N       E                     dE             d eps       ncg     rms          rms(c)
DAV:   1    -0.125575868699E+04   -0.11297E-03   -0.11667E-02 21600   0.152E-01    0.561E-02
DAV:   2    -0.125575869657E+04   -0.95754E-05   -0.32376E-04 16848   0.316E-02
  57 F= -.12557587E+04 E0= -.12557587E+04  d E =-.791748E-04  mag=    40.0000
       N       E                     dE             d eps       ncg     rms          rms(c)
DAV:   1    -0.125575880425E+04   -0.11725E-03   -0.46340E-02 21528   0.306E-01    0.109E-01
DAV:   2    -0.125575877950E+04    0.24749E-04   -0.16179E-03 29508   0.698E-02    0.896E-02
DAV:   3    -0.125575874704E+04    0.32457E-04   -0.15035E-04 15660   0.266E-02
  58 F= -.12557587E+04 E0= -.12557587E+04  d E =-.504719E-04  mag=    40.0000
       N       E                     dE             d eps       ncg     rms          rms(c)
DAV:   1    -0.125575926676E+04   -0.48726E-03   -0.60522E-01 21528   0.113E+00    0.411E-01
DAV:   2    -0.125575851139E+04    0.75537E-03   -0.21568E-02 28536   0.239E-01    0.275E-01
DAV:   3    -0.125575813458E+04    0.37681E-03   -0.24476E-03 30000   0.103E-01    0.144E-01
DAV:   4    -0.125575799589E+04    0.13869E-03   -0.94357E-04 29256   0.499E-02    0.944E-02
DAV:   5    -0.125575793667E+04    0.59220E-04   -0.14088E-04 13632   0.315E-02
  59 F= -.12557579E+04 E0= -.12557579E+04  d E =0.810368E-03  mag=    40.0000
       N       E                     dE             d eps       ncg     rms          rms(c)
DAV:   1    -0.125575921566E+04   -0.12198E-02   -0.37565E-01 21552   0.889E-01    0.335E-01
DAV:   2    -0.125575879065E+04    0.42501E-03   -0.13836E-02 27648   0.199E-01    0.202E-01
DAV:   3    -0.125575858949E+04    0.20116E-03   -0.16976E-03 31800   0.851E-02    0.129E-01
DAV:   4    -0.125575855147E+04    0.38021E-04   -0.73904E-04 25788   0.416E-02
  60 F= -.12557586E+04 E0= -.12557586E+04  d E =-.614797E-03  mag=    40.0000
       N       E                     dE             d eps       ncg     rms          rms(c)
DAV:   1    -0.125575863708E+04   -0.47594E-04   -0.38428E-02 21528   0.273E-01    0.915E-02
DAV:   2    -0.125575871043E+04   -0.73343E-04   -0.16026E-03 26352   0.800E-02    0.895E-02
DAV:   3    -0.125575870521E+04    0.52141E-05   -0.19290E-04 14496   0.285E-02
  61 F= -.12557587E+04 E0= -.12557587E+04  d E =-.153743E-03  mag=    40.0000
       N       E                     dE             d eps       ncg     rms          rms(c)
DAV:   1    -0.125575872079E+04   -0.10367E-04   -0.19631E-04 15204   0.231E-02    0.476E-02
DAV:   2    -0.125575871173E+04    0.90658E-05   -0.57853E-05 12660   0.153E-02
  62 F= -.12557587E+04 E0= -.12557587E+04  d E =-.651523E-05  mag=    40.0000
       N       E                     dE             d eps       ncg     rms          rms(c)
DAV:   1    -0.125575884197E+04   -0.12118E-03   -0.28659E-02 21528   0.248E-01    0.129E-01
DAV:   2    -0.125575873292E+04    0.10905E-03   -0.14461E-03 29928   0.709E-02    0.113E-01
DAV:   3    -0.125575869940E+04    0.33517E-04   -0.15708E-04 16188   0.306E-02
  63 F= -.12557587E+04 E0= -.12557587E+04  d E =0.123223E-04  mag=    40.0000
       N       E                     dE             d eps       ncg     rms          rms(c)
DAV:   1    -0.125576026647E+04   -0.15335E-02   -0.89060E-02 22224   0.462E-01    0.321E-01
DAV:   2    -0.125575886450E+04    0.14020E-02   -0.81902E-03 31488   0.160E-01    0.240E-01
DAV:   3    -0.125575862431E+04    0.24019E-03   -0.16166E-03 30624   0.797E-02    0.963E-02
DAV:   4    -0.125575855248E+04    0.71832E-04   -0.27258E-04 18192   0.342E-02
  64 F= -.12557586E+04 E0= -.12557586E+04  d E =0.146928E-03  mag=    40.0000
       N       E                     dE             d eps       ncg     rms          rms(c)
DAV:   1    -0.125575964982E+04   -0.10255E-02   -0.14269E-01 21660   0.548E-01    0.257E-01
DAV:   2    -0.125575908166E+04    0.56817E-03   -0.72042E-03 30588   0.143E-01    0.156E-01
DAV:   3    -0.125575895009E+04    0.13156E-03   -0.12739E-03 30096   0.758E-02    0.101E-01
DAV:   4    -0.125575891235E+04    0.37740E-04   -0.23170E-04 17100   0.272E-02
  65 F= -.12557589E+04 E0= -.12557589E+04  d E =-.359877E-03  mag=    40.0000
       N       E                     dE             d eps       ncg     rms          rms(c)
DAV:   1    -0.125575900012E+04   -0.50028E-04   -0.21991E-02 21528   0.207E-01    0.461E-02
DAV:   2    -0.125575905778E+04   -0.57661E-04   -0.75954E-04 25128   0.558E-02
  66 F= -.12557591E+04 E0= -.12557591E+04  d E =-.145428E-03  mag=    40.0000
