       N       E                     dE             d eps       ncg     rms          rms(c)
DAV:   1     0.111219507607E+05    0.11122E+05   -0.39390E+05 43020   0.125E+03
DAV:   2     0.104919856595E+04   -0.10073E+05   -0.92743E+04 44328   0.350E+02
DAV:   3    -0.142548486502E+04   -0.24747E+04   -0.23944E+04 48264   0.181E+02
DAV:   4    -0.164751625866E+04   -0.22203E+03   -0.21860E+03 64788   0.606E+01
DAV:   5    -0.165599415142E+04   -0.84779E+01   -0.83585E+01 67500   0.137E+01
DAV:   6    -0.165638164782E+04   -0.38750E+00   -0.38406E+00 68100   0.250E+00
DAV:   7    -0.165640425962E+04   -0.22612E-01   -0.22505E-01 68280   0.610E-01
DAV:   8    -0.165640587425E+04   -0.16146E-02   -0.16106E-02 63240   0.140E-01
DAV:   9    -0.165640600062E+04   -0.12637E-03   -0.12616E-03 44100   0.406E-02
DAV:  10    -0.165640601170E+04   -0.11079E-04   -0.11044E-04 36144   0.156E-02
DAV:  11    -0.165640601408E+04   -0.23774E-05   -0.23617E-05 33720   0.990E-03
DAV:  12    -0.165640601533E+04   -0.12520E-05   -0.12441E-05 32844   0.714E-03    0.166E+02
DAV:  13    -0.122297989054E+04    0.43343E+03   -0.25332E+03 64296   0.822E+01    0.106E+02
DAV:  14    -0.125930183791E+04   -0.36322E+02   -0.69790E+02 69984   0.577E+01    0.721E+01
DAV:  15    -0.125802589566E+04    0.12759E+01   -0.10627E+02 63480   0.264E+01    0.452E+01
DAV:  16    -0.125677502093E+04    0.12509E+01   -0.64322E+01 71304   0.265E+01    0.402E+01
DAV:  17    -0.125774170222E+04   -0.96668E+00   -0.29908E+01 64428   0.951E+00    0.200E+01
DAV:  18    -0.125632122189E+04    0.14205E+01   -0.10021E+01 64992   0.877E+00    0.101E+01
DAV:  19    -0.125609316294E+04    0.22806E+00   -0.30616E+00 64716   0.383E+00    0.625E+00
DAV:  20    -0.125614832231E+04   -0.55159E-01   -0.69588E-01 64164   0.188E+00    0.260E+00
DAV:  21    -0.125613054130E+04    0.17781E-01   -0.26738E-01 60780   0.127E+00    0.258E+00
DAV:  22    -0.125613967191E+04   -0.91306E-02   -0.12169E-01 64920   0.965E-01    0.863E-01
DAV:  23    -0.125613696614E+04    0.27058E-02   -0.21118E-02 56592   0.341E-01    0.537E-01
DAV:  24    -0.125613747249E+04   -0.50636E-03   -0.18021E-02 63216   0.250E-01    0.302E-01
DAV:  25    -0.125613703578E+04    0.43671E-03   -0.29223E-03 63456   0.134E-01    0.136E-01
DAV:  26    -0.125613702696E+04    0.88251E-05   -0.12692E-03 62256   0.643E-02    0.823E-02
DAV:  27    -0.125613702727E+04   -0.31733E-06   -0.15051E-04 27408   0.313E-02
   1 F= -.12561370E+04 E0= -.12561370E+04  d E =-.125614E+04  mag=    39.8777
       N       E                     dE             d eps       ncg     rms          rms(c)
DAV:   1    -0.125615408547E+04   -0.17059E-01   -0.84220E-01 44928   0.141E+00    0.981E-01
DAV:   2    -0.125614284237E+04    0.11243E-01   -0.70015E-02 63168   0.499E-01    0.814E-01
DAV:   3    -0.125614048307E+04    0.23593E-02   -0.12954E-02 62292   0.222E-01    0.360E-01
DAV:   4    -0.125613970941E+04    0.77366E-03   -0.29946E-03 63984   0.982E-02    0.225E-01
DAV:   5    -0.125613961716E+04    0.92247E-04   -0.10822E-03 58068   0.574E-02    0.108E-01
DAV:   6    -0.125613957559E+04    0.41566E-04   -0.51341E-04 45840   0.410E-02
   2 F= -.12561396E+04 E0= -.12561396E+04  d E =-.254832E-02  mag=    39.9024
       N       E                     dE             d eps       ncg     rms          rms(c)
DAV:   1    -0.125614043297E+04   -0.81581E-03   -0.59130E-03 47604   0.123E-01    0.107E-01
DAV:   2    -0.125614028756E+04    0.14541E-03   -0.12514E-03 60264   0.621E-02    0.872E-02
DAV:   3    -0.125614025267E+04    0.34890E-04   -0.17357E-04 33348   0.297E-02
   3 F= -.12561403E+04 E0= -.12561403E+04  d E =-.677074E-03  mag=    39.9114
       N       E                     dE             d eps       ncg     rms          rms(c)
DAV:   1    -0.125614676668E+04   -0.64791E-02   -0.65568E-01 45168   0.119E+00    0.602E-01
DAV:   2    -0.125614288642E+04    0.38803E-02   -0.35376E-02 60000   0.317E-01    0.381E-01
DAV:   3    -0.125614225770E+04    0.62871E-03   -0.66878E-03 60936   0.177E-01    0.211E-01
DAV:   4    -0.125614208123E+04    0.17647E-03   -0.13949E-03 60048   0.608E-02    0.117E-01
DAV:   5    -0.125614202726E+04    0.53969E-04   -0.25071E-04 33588   0.279E-02
   4 F= -.12561420E+04 E0= -.12561420E+04  d E =-.177460E-02  mag=    39.9270
       N       E                     dE             d eps       ncg     rms          rms(c)
DAV:   1    -0.125614261226E+04   -0.53103E-03   -0.56781E-01 43776   0.107E+00    0.345E-01
DAV:   2    -0.125614334674E+04   -0.73448E-03   -0.23136E-02 59580   0.286E-01    0.375E-01
DAV:   3    -0.125614312521E+04    0.22154E-03   -0.23095E-03 61008   0.928E-02    0.252E-01
DAV:   4    -0.125614298558E+04    0.13963E-03   -0.49375E-04 45624   0.372E-02    0.183E-01
DAV:   5    -0.125614291054E+04    0.75036E-04   -0.24543E-04 32700   0.350E-02
   5 F= -.12561429E+04 E0= -.12561429E+04  d E =-.883280E-03  mag=    39.9409
       N       E                     dE             d eps       ncg     rms          rms(c)
DAV:   1    -0.125614388577E+04   -0.90019E-03   -0.47811E-02 44448   0.318E-01    0.210E-01
DAV:   2    -0.125614356696E+04    0.31881E-03   -0.45435E-03 61668   0.122E-01    0.194E-01
DAV:   3    -0.125614344770E+04    0.11926E-03   -0.91346E-04 55680   0.556E-02    0.100E-01
DAV:   4    -0.125614341439E+04    0.33314E-04   -0.14641E-04 28284   0.269E-02
   6 F= -.12561434E+04 E0= -.12561434E+04  d E =-.503846E-03  mag=    39.9491
       N       E                     dE             d eps       ncg     rms          rms(c)
DAV:   1    -0.125614368758E+04   -0.23988E-03   -0.88923E-02 43776   0.425E-01    0.153E-01
DAV:   2    -0.125614376511E+04   -0.77524E-04   -0.46477E-03 60672   0.135E-01    0.167E-01
DAV:   3    -0.125614370282E+04    0.62284E-04   -0.64913E-04 49536   0.457E-02
   7 F= -.12561437E+04 E0= -.12561437E+04  d E =-.288434E-03  mag=    39.9537
       N       E                     dE             d eps       ncg     rms          rms(c)
DAV:   1    -0.125614388920E+04   -0.12410E-03   -0.15555E-02 44364   0.178E-01    0.838E-02
DAV:   2    -0.125614389472E+04   -0.55120E-05   -0.85519E-04 54540   0.542E-02
   8 F= -.12561439E+04 E0= -.12561439E+04  d E =-.191893E-03  mag=    39.9562
       N       E                     dE             d eps       ncg     rms          rms(c)
DAV:   1    -0.125614392854E+04   -0.39338E-04   -0.14858E-01 43728   0.536E-01    0.139E-01
DAV:   2    -0.125614423042E+04   -0.30188E-03   -0.58939E-03 58320   0.130E-01    0.156E-01
DAV:   3    -0.125614416394E+04    0.66473E-04   -0.58889E-04 46800   0.397E-02
   9 F= -.12561442E+04 E0= -.12561442E+04  d E =-.269229E-03  mag=    39.9602
       N       E                     dE             d eps       ncg     rms          rms(c)
DAV:   1    -0.125614418546E+04    0.44956E-04   -0.31546E-02 44472   0.258E-01    0.125E-01
DAV:   2    -0.125614417643E+04    0.90329E-05   -0.29458E-03 62064   0.985E-02    0.134E-01
DAV:   3    -0.125614408933E+04    0.87101E-04   -0.35112E-04 41544   0.366E-02
  10 F= -.12561441E+04 E0= -.12561441E+04  d E =0.746164E-04  mag=    39.9640
       N       E                     dE             d eps       ncg     rms          rms(c)
DAV:   1    -0.125614401193E+04    0.16450E-03   -0.17535E-01 43680   0.583E-01    0.165E-01
DAV:   2    -0.125614438032E+04   -0.36839E-03   -0.76514E-03 57732   0.163E-01    0.211E-01
DAV:   3    -0.125614435424E+04    0.26085E-04   -0.10787E-03 55452   0.517E-02    0.142E-01
DAV:   4    -0.125614430456E+04    0.49677E-04   -0.43380E-04 43836   0.365E-02
  11 F= -.12561443E+04 E0= -.12561443E+04  d E =-.215230E-03  mag=    39.9690
       N       E                     dE             d eps       ncg     rms          rms(c)
DAV:   1    -0.125614461597E+04   -0.26174E-03   -0.47452E-02 43728   0.287E-01    0.879E-02
DAV:   2    -0.125614475727E+04   -0.14130E-03   -0.32803E-03 57576   0.100E-01    0.141E-01
DAV:   3    -0.125614469146E+04    0.65807E-04   -0.17146E-04 31056   0.280E-02
  12 F= -.12561447E+04 E0= -.12561447E+04  d E =-.386906E-03  mag=    39.9709
       N       E                     dE             d eps       ncg     rms          rms(c)
DAV:   1    -0.125614503532E+04   -0.27804E-03   -0.57396E-02 43728   0.342E-01    0.155E-01
DAV:   2    -0.125614493807E+04    0.97246E-04   -0.29431E-03 62400   0.981E-02    0.121E-01
DAV:   3    -0.125614487958E+04    0.58494E-04   -0.53629E-04 44580   0.451E-02
  13 F= -.12561449E+04 E0= -.12561449E+04  d E =-.188111E-03  mag=    39.9739
       N       E                     dE             d eps       ncg     rms          rms(c)
DAV:   1    -0.125614512675E+04   -0.18869E-03   -0.31230E-02 43800   0.254E-01    0.102E-01
DAV:   2    -0.125614511565E+04    0.11109E-04   -0.17059E-03 59496   0.798E-02    0.911E-02
DAV:   3    -0.125614508588E+04    0.29764E-04   -0.24100E-04 34536   0.312E-02
  14 F= -.12561451E+04 E0= -.12561451E+04  d E =-.206306E-03  mag=    39.9762
       N       E                     dE             d eps       ncg     rms          rms(c)
DAV:   1    -0.125614519646E+04   -0.80810E-04   -0.34729E-02 43680   0.258E-01    0.626E-02
DAV:   2    -0.125614527082E+04   -0.74361E-04   -0.11099E-03 53568   0.561E-02    0.687E-02
DAV:   3    -0.125614526247E+04    0.83504E-05   -0.82715E-05 25884   0.170E-02
  15 F= -.12561453E+04 E0= -.12561453E+04  d E =-.176584E-03  mag=    39.9784
       N       E                     dE             d eps       ncg     rms          rms(c)
DAV:   1    -0.125614537607E+04   -0.10525E-03   -0.42134E-02 43680   0.283E-01    0.605E-02
DAV:   2    -0.125614549569E+04   -0.11962E-03   -0.16485E-03 56640   0.667E-02    0.797E-02
DAV:   3    -0.125614547691E+04    0.18784E-04   -0.10369E-04 25728   0.202E-02
  16 F= -.12561455E+04 E0= -.12561455E+04  d E =-.214441E-03  mag=    39.9799
       N       E                     dE             d eps       ncg     rms          rms(c)
DAV:   1    -0.125614559941E+04   -0.10372E-03   -0.28387E-02 43680   0.234E-01    0.529E-02
DAV:   2    -0.125614566623E+04   -0.66817E-04   -0.91019E-04 50124   0.460E-02
  17 F= -.12561457E+04 E0= -.12561457E+04  d E =-.189323E-03  mag=    39.9811
       N       E                     dE             d eps       ncg     rms          rms(c)
DAV:   1    -0.125614581453E+04   -0.21512E-03   -0.23686E-02 43644   0.215E-01    0.762E-02
DAV:   2    -0.125614582272E+04   -0.81864E-05   -0.10401E-03 53568   0.577E-02    0.777E-02
DAV:   3    -0.125614580315E+04    0.19567E-04   -0.10097E-04 25764   0.221E-02
  18 F= -.12561458E+04 E0= -.12561458E+04  d E =-.136918E-03  mag=    39.9828
       N       E                     dE             d eps       ncg     rms          rms(c)
DAV:   1    -0.125614592143E+04   -0.98712E-04   -0.27354E-02 43656   0.231E-01    0.583E-02
DAV:   2    -0.125614598817E+04   -0.66742E-04   -0.11217E-03 55488   0.574E-02    0.706E-02
DAV:   3    -0.125614597159E+04    0.16582E-04   -0.85271E-05 25056   0.195E-02
  19 F= -.12561460E+04 E0= -.12561460E+04  d E =-.168440E-03  mag=    39.9841
       N       E                     dE             d eps       ncg     rms          rms(c)
DAV:   1    -0.125614608775E+04   -0.99581E-04   -0.34756E-02 43512   0.258E-01    0.450E-02
DAV:   2    -0.125614616942E+04   -0.81668E-04   -0.95934E-04 46188   0.453E-02
  20 F= -.12561462E+04 E0= -.12561462E+04  d E =-.197831E-03  mag=    39.9851
       N       E                     dE             d eps       ncg     rms          rms(c)
DAV:   1    -0.125614628164E+04   -0.19389E-03   -0.40273E-02 43452   0.277E-01    0.590E-02
DAV:   2    -0.125614637837E+04   -0.96734E-04   -0.11942E-03 48828   0.525E-02    0.492E-02
DAV:   3    -0.125614637238E+04    0.59914E-05   -0.50557E-05 22992   0.153E-02
  21 F= -.12561464E+04 E0= -.12561464E+04  d E =-.202960E-03  mag=    39.9863
       N       E                     dE             d eps       ncg     rms          rms(c)
DAV:   1    -0.125614633459E+04    0.43784E-04   -0.12848E-03 38664   0.505E-02    0.206E-02
DAV:   2    -0.125614633787E+04   -0.32828E-05   -0.51703E-05 22584   0.124E-02
  22 F= -.12561463E+04 E0= -.12561463E+04  d E =0.345102E-04  mag=    39.9871
       N       E                     dE             d eps       ncg     rms          rms(c)
DAV:   1    -0.125614630352E+04    0.31063E-04   -0.24820E-03 43812   0.730E-02    0.413E-02
DAV:   2    -0.125614628796E+04    0.15567E-04   -0.11024E-04 23508   0.207E-02
  23 F= -.12561463E+04 E0= -.12561463E+04  d E =0.499131E-04  mag=    39.9879
       N       E                     dE             d eps       ncg     rms          rms(c)
DAV:   1    -0.125614634531E+04   -0.41785E-04   -0.76843E-02 43392   0.386E-01    0.899E-02
DAV:   2    -0.125614650715E+04   -0.16184E-03   -0.23789E-03 54240   0.743E-02    0.715E-02
DAV:   3    -0.125614649145E+04    0.15698E-04   -0.11407E-04 28680   0.237E-02
  24 F= -.12561465E+04 E0= -.12561465E+04  d E =-.203491E-03  mag=    39.9890
       N       E                     dE             d eps       ncg     rms          rms(c)
DAV:   1    -0.125614669605E+04   -0.18890E-03   -0.11195E-02 43764   0.155E-01    0.896E-02
DAV:   2    -0.125614660254E+04    0.93504E-04   -0.75880E-04 49836   0.487E-02
  25 F= -.12561466E+04 E0= -.12561466E+04  d E =-.111096E-03  mag=    39.9897
       N       E                     dE             d eps       ncg     rms          rms(c)
DAV:   1    -0.125614724638E+04   -0.55034E-03   -0.64658E-02 44244   0.372E-01    0.200E-01
DAV:   2    -0.125614689820E+04    0.34818E-03   -0.50599E-03 62460   0.129E-01    0.192E-01
DAV:   3    -0.125614676170E+04    0.13650E-03   -0.68880E-04 49908   0.505E-02    0.819E-02
DAV:   4    -0.125614673153E+04    0.30163E-04   -0.82872E-05 25812   0.196E-02
  26 F= -.12561467E+04 E0= -.12561467E+04  d E =-.128991E-03  mag=    39.9911
       N       E                     dE             d eps       ncg     rms          rms(c)
DAV:   1    -0.125614713888E+04   -0.37718E-03   -0.19467E-02 44556   0.207E-01    0.128E-01
DAV:   2    -0.125614698853E+04    0.15035E-03   -0.23242E-03 63324   0.923E-02    0.126E-01
DAV:   3    -0.125614691639E+04    0.72141E-04   -0.32491E-04 40536   0.355E-02
  27 F= -.12561469E+04 E0= -.12561469E+04  d E =-.184852E-03  mag=    39.9919
       N       E                     dE             d eps       ncg     rms          rms(c)
DAV:   1    -0.125614700565E+04   -0.17119E-04   -0.46598E-02 43368   0.300E-01    0.792E-02
DAV:   2    -0.125614709236E+04   -0.86719E-04   -0.14006E-03 54108   0.594E-02    0.609E-02
DAV:   3    -0.125614708691E+04    0.54527E-05   -0.56385E-05 24240   0.182E-02
  28 F= -.12561471E+04 E0= -.12561471E+04  d E =-.170526E-03  mag=    39.9926
       N       E                     dE             d eps       ncg     rms          rms(c)
DAV:   1    -0.125614717326E+04   -0.80901E-04   -0.12072E-02 43404   0.153E-01    0.345E-02
DAV:   2    -0.125614720267E+04   -0.29405E-04   -0.33440E-04 30324   0.305E-02
  29 F= -.12561472E+04 E0= -.12561472E+04  d E =-.115758E-03  mag=    39.9930
       N       E                     dE             d eps       ncg     rms          rms(c)
DAV:   1    -0.125614725163E+04   -0.78364E-04   -0.14322E-03 40848   0.546E-02    0.280E-02
DAV:   2    -0.125614724344E+04    0.81843E-05   -0.68455E-05 22548   0.159E-02
  30 F= -.12561472E+04 E0= -.12561472E+04  d E =-.407745E-04  mag=    39.9934
       N       E                     dE             d eps       ncg     rms          rms(c)
DAV:   1    -0.125614733252E+04   -0.80890E-04   -0.11942E-02 43416   0.153E-01    0.584E-02
DAV:   2    -0.125614733581E+04   -0.32954E-05   -0.40992E-04 39648   0.348E-02
  31 F= -.12561473E+04 E0= -.12561473E+04  d E =-.923693E-04  mag=    39.9938
       N       E                     dE             d eps       ncg     rms          rms(c)
DAV:   1    -0.125614736911E+04   -0.36591E-04   -0.75814E-03 43524   0.119E-01    0.819E-02
DAV:   2    -0.125614737034E+04   -0.12305E-05   -0.48554E-04 43500   0.418E-02
  32 F= -.12561474E+04 E0= -.12561474E+04  d E =-.345265E-04  mag=    39.9941
       N       E                     dE             d eps       ncg     rms          rms(c)
DAV:   1    -0.125614746232E+04   -0.93208E-04   -0.34669E-02 43344   0.259E-01    0.462E-02
DAV:   2    -0.125614754670E+04   -0.84380E-04   -0.98846E-04 48516   0.485E-02
  33 F= -.12561475E+04 E0= -.12561475E+04  d E =-.176357E-03  mag=    39.9945
       N       E                     dE             d eps       ncg     rms          rms(c)
DAV:   1    -0.125614758067E+04   -0.11835E-03   -0.10224E-03 38784   0.453E-02    0.228E-02
DAV:   2    -0.125614757614E+04    0.45346E-05   -0.40906E-05 22752   0.136E-02
  34 F= -.12561476E+04 E0= -.12561476E+04  d E =-.294381E-04  mag=    39.9948
       N       E                     dE             d eps       ncg     rms          rms(c)
DAV:   1    -0.125614771512E+04   -0.13445E-03   -0.36972E-02 43320   0.268E-01    0.612E-02
DAV:   2    -0.125614776441E+04   -0.49298E-04   -0.11438E-03 49764   0.515E-02    0.482E-02
DAV:   3    -0.125614775568E+04    0.87383E-05   -0.70214E-05 23688   0.184E-02
  35 F= -.12561478E+04 E0= -.12561478E+04  d E =-.179541E-03  mag=    39.9953
       N       E                     dE             d eps       ncg     rms          rms(c)
DAV:   1    -0.125614782120E+04   -0.56788E-04   -0.12908E-02 43392   0.161E-01    0.721E-02
DAV:   2    -0.125614782622E+04   -0.50205E-05   -0.64886E-04 50208   0.485E-02
  36 F= -.12561478E+04 E0= -.12561478E+04  d E =-.705473E-04  mag=    39.9956
       N       E                     dE             d eps       ncg     rms          rms(c)
DAV:   1    -0.125614789412E+04   -0.72917E-04   -0.27202E-02 43320   0.231E-01    0.437E-02
DAV:   2    -0.125614796154E+04   -0.67415E-04   -0.84804E-04 51468   0.505E-02
  37 F= -.12561480E+04 E0= -.12561480E+04  d E =-.135312E-03  mag=    39.9958
