BiTiFeO                                 
           1
    10.933197    0.000025    0.006587
     0.000065    5.464735   -0.000555
     0.302839    0.013275   41.878868
   Bi   Ti   O    Fe
  40  24 120   8
Direct configuration=     1
   0.12490000  0.24738701  0.10415400
   0.62489998  0.24738701  0.10415400
   0.12271400  0.27132899  0.21959600
   0.62271398  0.27132899  0.21959600
   0.12490000  0.74738699  0.60415399
   0.62489998  0.74738699  0.60415399
   0.12271400  0.77132899  0.71959603
   0.62271398  0.77132899  0.71959603
   0.38780999  0.76828402  0.88865203
   0.88780999  0.76828402  0.88865203
   0.36119402  0.72235399  0.78026903
   0.86119402  0.72235399  0.78026903
   0.38780999  0.26828399  0.38865200
   0.88780999  0.26828399  0.38865200
   0.36119402  0.22235399  0.28026900
   0.86119402  0.22235399  0.28026900
   0.37489799  0.75239801  0.10415200
   0.87489796  0.75239801  0.10415200
   0.37270799  0.72879898  0.21959800
   0.87270796  0.72879898  0.21959800
   0.37489799  0.25239801  0.60415202
   0.87489796  0.25239801  0.60415202
   0.37270799  0.22879900  0.71959800
   0.87270796  0.22879900  0.71959800
   0.13780800  0.23189400  0.88865298
   0.63780797  0.23189400  0.88865298
   0.11118500  0.27747700  0.78026801
   0.61118501  0.27747700  0.78026801
   0.13780800  0.73189402  0.38865301
   0.63780797  0.73189402  0.38865301
   0.11118500  0.77747703  0.28026801
   0.61118501  0.77747703  0.28026801
   0.12829199  0.24472100  0.99919403
   0.62829197  0.24472100  0.99919403
   0.12829199  0.74472100  0.49919400
   0.62829197  0.74472100  0.49919400
   0.37829700  0.75530499  0.99919599
   0.87829697  0.75530499  0.99919599
   0.37829700  0.25530499  0.49919599
   0.87829697  0.25530499  0.49919599
   0.39519101  0.75090998  0.65244198
   0.89519101  0.75090998  0.65244198
   0.39519101  0.25091001  0.15244199
   0.89519101  0.25091001  0.15244199
   0.40322700  0.75464302  0.45080000
   0.90322697  0.75464302  0.45080000
   0.40322700  0.25464299  0.95080000
   0.90322697  0.25464299  0.95080000
   0.14789100  0.24846300  0.54995400
   0.64789098  0.24846300  0.54995400
   0.14519399  0.24874800  0.65243101
   0.64519399  0.24874800  0.65243101
   0.14519399  0.74874800  0.15243100
   0.64519399  0.74874800  0.15243100
   0.14789100  0.74846298  0.04995400
   0.64789098  0.74846298  0.04995400
   0.15323000  0.24556901  0.45080599
   0.65323001  0.24556901  0.45080599
   0.15323000  0.74556899  0.95080602
   0.65323001  0.74556899  0.95080602
   0.39788899  0.75140500  0.54995298
   0.89788902  0.75140500  0.54995298
   0.39788899  0.25140500  0.04995300
   0.89788902  0.25140500  0.04995300
   0.29894999  0.54406601  0.05599300
   0.79894996  0.54406601  0.05599300
   0.15033700  0.30744699  0.40758300
   0.65033698  0.30744699  0.40758300
   0.26059499  0.47334799  0.13704200
   0.76059496  0.47334799  0.13704200
   0.15274000  0.19169500  0.30073801
   0.65274000  0.19169500  0.30073801
   0.25181001  0.49450800  0.24958700
   0.75181001  0.49450800  0.24958700
   0.01068300  0.96506399  0.04078400
   0.51068300  0.96506399  0.04078400
   0.04961100  0.05292900  0.14846900
   0.54961097  0.05292900  0.14846900
   0.29894999  0.04406600  0.55599302
   0.79894996  0.04406600  0.55599302
   0.15033700  0.80744702  0.90758300
   0.65033698  0.80744702  0.90758300
   0.26059499  0.97334802  0.63704199
   0.76059496  0.97334802  0.63704199
   0.15274000  0.69169497  0.80073798
   0.65274000  0.69169497  0.80073798
   0.25181001  0.99450803  0.74958700
   0.75181001  0.99450803  0.74958700
   0.01068300  0.46506399  0.54078400
   0.51068300  0.46506399  0.54078400
   0.04961100  0.55292898  0.64846897
   0.54961097  0.55292898  0.64846897
   0.06472800  0.43249899  0.95055401
   0.56472802  0.43249899  0.95055401
   0.41001099  0.67963803  0.59641498
   0.91001099  0.67963803  0.59641498
   0.01802000  0.50123697  0.86012798
   0.51801997  0.50123697  0.86012798
   0.38978800  0.80555499  0.69467700
   0.88978803  0.80555499  0.69467700
   0.00141500  0.50556397  0.74744803
   0.50141501  0.50556397  0.74744803
   0.26326001  0.03753200  0.96425498
   0.76326001  0.03753200  0.96425498
   0.26973000  0.99847198  0.85522902
   0.76972997  0.99847198  0.85522902
   0.06472800  0.93249899  0.45055401
   0.56472802  0.93249899  0.45055401
   0.41001099  0.17963800  0.09641500
   0.91001099  0.17963800  0.09641500
   0.01802000  0.00123700  0.36012798
   0.51801997  0.00123700  0.36012798
   0.38978800  0.30555499  0.19467700
   0.88978803  0.30555499  0.19467700
   0.00141500  0.00556400  0.24744800
   0.50141501  0.00556400  0.24744800
   0.26326001  0.53753197  0.46425500
   0.76326001  0.53753197  0.46425500
   0.26973000  0.49847200  0.35522899
   0.76972997  0.49847200  0.35522899
   0.04895400  0.45576000  0.05598800
   0.54895401  0.45576000  0.05598800
   0.40034899  0.69287097  0.40757999
   0.90034902  0.69287097  0.40757999
   0.01060400  0.52629900  0.13703801
   0.51060402  0.52629900  0.13703801
   0.40274501  0.80831301  0.30074200
   0.90274501  0.80831301  0.30074200
   0.00181800  0.50546998  0.24958800
   0.50181800  0.50546998  0.24958800
   0.26069200  0.03481700  0.04078500
   0.76069200  0.03481700  0.04078500
   0.29962099  0.94669002  0.14846601
   0.79962099  0.94669002  0.14846601
   0.04895400  0.95576000  0.55598801
   0.54895401  0.95576000  0.55598801
   0.40034899  0.19287100  0.90758002
   0.90034902  0.19287100  0.90758002
   0.01060400  0.02629900  0.63703799
   0.51060402  0.02629900  0.63703799
   0.40274501  0.30831301  0.80074197
   0.90274501  0.30831301  0.80074197
   0.00181800  0.00547000  0.74958801
   0.50181800  0.00547000  0.74958801
   0.26069200  0.53481698  0.54078501
   0.76069200  0.53481698  0.54078501
   0.29962099  0.44668999  0.64846599
   0.79962099  0.44668999  0.64846599
   0.31473401  0.56774902  0.95055199
   0.81473398  0.56774902  0.95055199
   0.15998800  0.32010701  0.59641600
   0.65998799  0.32010701  0.59641600
   0.26804200  0.49917200  0.86013001
   0.76804197  0.49917200  0.86013001
   0.13977800  0.19418500  0.69467503
   0.63977802  0.19418500  0.69467503
   0.25142899  0.49437401  0.74745297
   0.75142896  0.49437401  0.74745297
   0.01326400  0.96266001  0.96425700
   0.51326400  0.96266001  0.96425700
   0.01975400  0.00191400  0.85522801
   0.51975399  0.00191400  0.85522801
   0.31473401  0.06774900  0.45055199
   0.81473398  0.06774900  0.45055199
   0.15998800  0.82010698  0.09641600
   0.65998799  0.82010698  0.09641600
   0.26804200  0.99917197  0.36013001
   0.76804197  0.99917197  0.36013001
   0.13977800  0.69418502  0.19467500
   0.63977802  0.69418502  0.19467500
   0.25142899  0.99437398  0.24745300
   0.75142896  0.99437398  0.24745300
   0.01326400  0.46266001  0.46425700
   0.51326400  0.46266001  0.46425700
   0.01975400  0.50191402  0.35522801
   0.51975399  0.50191402  0.35522801
   0.16438399  0.16985799  0.50234300
   0.66438401  0.16985799  0.50234300
   0.16438399  0.66985798  0.00234300
   0.66438401  0.66985798  0.00234300
   0.41438100  0.83017600  0.50234199
   0.91438103  0.83017600  0.50234199
   0.41438100  0.33017600  0.00234200
   0.91438103  0.33017600  0.00234200
   0.14267699  0.23871499  0.34369201
   0.64267701  0.23871499  0.34369201
   0.14267699  0.73871499  0.84369201
   0.64267701  0.73871499  0.84369201
   0.39267799  0.76163000  0.34370699
   0.89267802  0.76163000  0.34370699
   0.39267799  0.26163000  0.84370703
   0.89267802  0.26163000  0.84370703
BiTiFeO                                 
           1
    10.922907    0.000053    0.007332
     0.000079    5.458850   -0.000585
     0.305417    0.013025   41.864155
   Bi   Ti   O    Fe
  40  24 120   8
Direct configuration=     2
   0.12491878  0.24740714  0.10415306
   0.62491877  0.24740714  0.10415306
   0.12269916  0.27132518  0.21958878
   0.62269914  0.27132518  0.21958878
   0.12491878  0.74740712  0.60415305
   0.62491877  0.74740712  0.60415305
   0.12269916  0.77132518  0.71958881
   0.62269914  0.77132518  0.71958881
   0.38782424  0.76828286  0.88864597
   0.88782424  0.76828286  0.88864597
   0.36119365  0.72236076  0.78025605
   0.86119365  0.72236076  0.78025605
   0.38782424  0.26828283  0.38864594
   0.88782424  0.26828283  0.38864594
   0.36119365  0.22236076  0.28025602
   0.86119365  0.22236076  0.28025602
   0.37491976  0.75238180  0.10415112
   0.87491973  0.75238180  0.10415112
   0.37269180  0.72880195  0.21959081
   0.87269177  0.72880195  0.21959081
   0.37491976  0.25238180  0.60415114
   0.87491973  0.25238180  0.60415114
   0.37269180  0.22880197  0.71959081
   0.87269177  0.22880197  0.71959081
   0.13782412  0.23189083  0.88864721
   0.63782409  0.23189083  0.88864721
   0.11118629  0.27746607  0.78025515
   0.61118631  0.27746607  0.78025515
   0.13782412  0.73189084  0.38864724
   0.63782409  0.73189084  0.38864724
   0.11118629  0.77746610  0.28025515
   0.61118631  0.77746610  0.28025515
   0.12828759  0.24471577  0.99919853
   0.62828756  0.24471577  0.99919853
   0.12828759  0.74471577  0.49919850
   0.62828756  0.74471577  0.49919850
   0.37829363  0.75530730  0.99920069
   0.87829360  0.75530730  0.99920069
   0.37829363  0.25530730  0.49920069
   0.87829360  0.25530730  0.49920069
   0.39520695  0.75091248  0.65244238
   0.89520695  0.75091248  0.65244238
   0.39520695  0.25091251  0.15244240
   0.89520695  0.25091251  0.15244240
   0.40321531  0.75463988  0.45080386
   0.90321528  0.75463988  0.45080386
   0.40321531  0.25463985  0.95080386
   0.90321528  0.25463985  0.95080386
   0.14788869  0.24846328  0.54995875
   0.64788867  0.24846328  0.54995875
   0.14520883  0.24874541  0.65243160
   0.64520883  0.24874541  0.65243160
   0.14520883  0.74874541  0.15243159
   0.64520883  0.74874541  0.15243159
   0.14788869  0.74846325  0.04995875
   0.64788867  0.74846325  0.04995875
   0.15321688  0.24557335  0.45080977
   0.65321690  0.24557335  0.45080977
   0.15321688  0.74557333  0.95080980
   0.65321690  0.74557333  0.95080980
   0.39788788  0.75140665  0.54995770
   0.89788791  0.75140665  0.54995770
   0.39788788  0.25140665  0.04995772
   0.89788791  0.25140665  0.04995772
   0.29896040  0.54402118  0.05599821
   0.79896037  0.54402118  0.05599821
   0.15031891  0.30746713  0.40758655
   0.65031890  0.30746713  0.40758655
   0.26062840  0.47333528  0.13703763
   0.76062837  0.47333528  0.13703763
   0.15277784  0.19171323  0.30073125
   0.65277784  0.19171323  0.30073125
   0.25177952  0.49452058  0.24958096
   0.75177952  0.49452058  0.24958096
   0.01066664  0.96507856  0.04078692
   0.51066664  0.96507856  0.04078692
   0.04961202  0.05294334  0.14847121
   0.54961199  0.05294334  0.14847121
   0.29896040  0.04402117  0.55599823
   0.79896037  0.04402117  0.55599823
   0.15031891  0.80746716  0.90758655
   0.65031890  0.80746716  0.90758655
   0.26062840  0.97333531  0.63703762
   0.76062837  0.97333531  0.63703762
   0.15277784  0.69171320  0.80073122
   0.65277784  0.69171320  0.80073122
   0.25177952  0.99452061  0.74958096
   0.75177952  0.99452061  0.74958096
   0.01066664  0.46507856  0.54078692
   0.51066664  0.46507856  0.54078692
   0.04961202  0.55294332  0.64847118
   0.54961199  0.55294332  0.64847118
   0.06473416  0.43253059  0.95056235
   0.56473418  0.43253059  0.95056235
   0.41005734  0.67961382  0.59642122
   0.91005734  0.67961382  0.59642122
   0.01801007  0.50123198  0.86012674
   0.51801004  0.50123198  0.86012674
   0.38982902  0.80557218  0.69467354
   0.88982905  0.80557218  0.69467354
   0.00141617  0.50556170  0.74744246
   0.50141619  0.50556170  0.74744246
   0.26329894  0.03756004  0.96426406
   0.76329894  0.03756004  0.96426406
   0.26969065  0.99849904  0.85523110
   0.76969062  0.99849904  0.85523110
   0.06473416  0.93253059  0.45056235
   0.56473418  0.93253059  0.45056235
   0.41005734  0.17961379  0.09642123
   0.91005734  0.17961379  0.09642123
   0.01801007  0.00123201  0.36012674
   0.51801004  0.00123201  0.36012674
   0.38982902  0.30557218  0.19467354
   0.88982905  0.30557218  0.19467354
   0.00141617  0.00556173  0.24744243
   0.50141619  0.00556173  0.24744243
   0.26329894  0.53756001  0.46426409
   0.76329894  0.53756001  0.46426409
   0.26969065  0.49849907  0.35523107
   0.76969062  0.49849907  0.35523107
   0.04890738  0.45580857  0.05599325
   0.54890739  0.45580857  0.05599325
   0.40028079  0.69284898  0.40758293
   0.90028082  0.69284898  0.40758293
   0.01060412  0.52631457  0.13703389
   0.51060414  0.52631457  0.13703389
   0.40271216  0.80829157  0.30073545
   0.90271216  0.80829157  0.30073545
   0.00183650  0.50545701  0.24958234
   0.50183650  0.50545701  0.24958234
   0.26071106  0.03480143  0.04078792
   0.76071106  0.03480143  0.04078792
   0.29968687  0.94668089  0.14846784
   0.79968687  0.94668089  0.14846784
   0.04890738  0.95580857  0.55599326
   0.54890739  0.95580857  0.55599326
   0.40028079  0.19284901  0.90758296
   0.90028082  0.19284901  0.90758296
   0.01060412  0.02631457  0.63703388
   0.51060414  0.02631457  0.63703388
   0.40271216  0.30829157  0.80073542
   0.90271216  0.30829157  0.80073542
   0.00183650  0.00545703  0.74958236
   0.50183650  0.00545703  0.74958236
   0.26071106  0.53480141  0.54078794
   0.76071106  0.53480141  0.54078794
   0.29968687  0.44668086  0.64846783
   0.79968687  0.44668086  0.64846783
   0.31473259  0.56771496  0.95056069
   0.81473256  0.56771496  0.95056069
   0.15998601  0.32013302  0.59642199
   0.65998600  0.32013302  0.59642199
   0.26804562  0.49917399  0.86012867
   0.76804559  0.49917399  0.86012867
   0.13979169  0.19417125  0.69467131
   0.63979170  0.19417125  0.69467131
   0.25139266  0.49437296  0.74744729
   0.75139263  0.49437296  0.74744729
   0.01323115  0.96263238  0.96426620
   0.51323115  0.96263238  0.96426620
   0.01974857  0.00188476  0.85523010
   0.51974856  0.00188476  0.85523010
   0.31473259  0.06771493  0.45056069
   0.81473256  0.06771493  0.45056069
   0.15998601  0.82013299  0.09642199
   0.65998600  0.82013299  0.09642199
   0.26804562  0.99917396  0.36012867
   0.76804559  0.99917396  0.36012867
   0.13979169  0.69417127  0.19467128
   0.63979170  0.69417127  0.19467128
   0.25139266  0.99437293  0.24744732
   0.75139263  0.99437293  0.24744732
   0.01323115  0.46263238  0.46426620
   0.51323115  0.46263238  0.46426620
   0.01974857  0.50188478  0.35523010
   0.51974856  0.50188478  0.35523010
   0.16435481  0.16984603  0.50234689
   0.66435483  0.16984603  0.50234689
   0.16435481  0.66984601  0.00234689
   0.66435483  0.66984601  0.00234689
   0.41439219  0.83019299  0.50234563
   0.91439222  0.83019299  0.50234563
   0.41439219  0.33019299  0.00234564
   0.91439222  0.33019299  0.00234564
   0.14266991  0.23871189  0.34368959
   0.64266993  0.23871189  0.34368959
   0.14266991  0.73871189  0.84368959
   0.64266993  0.73871189  0.84368959
   0.39267023  0.76163335  0.34370439
   0.89267026  0.76163335  0.34370439
   0.39267023  0.26163335  0.84370442
   0.89267026  0.26163335  0.84370442
BiTiFeO                                 
           1
    10.922510    0.000056    0.007519
     0.000080    5.458523   -0.000600
     0.306105    0.012912   41.893635
   Bi   Ti   O    Fe
  40  24 120   8
Direct configuration=     3
   0.12486139  0.24744599  0.10418054
   0.62486138  0.24744599  0.10418054
   0.12272266  0.27133258  0.21962310
   0.62272264  0.27133258  0.21962310
   0.12486139  0.74744597  0.60418053
   0.62486138  0.74744597  0.60418053
   0.12272266  0.77133258  0.71962313
   0.62272264  0.77133258  0.71962313
   0.38778624  0.76832756  0.88861221
   0.88778624  0.76832756  0.88861221
   0.36114701  0.72235631  0.78020200
   0.86114701  0.72235631  0.78020200
   0.38778624  0.26832753  0.38861218
   0.88778624  0.26832753  0.38861218
   0.36114701  0.22235631  0.28020197
   0.86114701  0.22235631  0.28020197
   0.37488161  0.75233893  0.10417855
   0.87488158  0.75233893  0.10417855
   0.37271690  0.72876348  0.21962860
   0.87271687  0.72876348  0.21962860
   0.37488161  0.25233893  0.60417858
   0.87488158  0.25233893  0.60417858
   0.37271690  0.22876349  0.71962860
   0.87271687  0.22876349  0.71962860
   0.13779507  0.23186162  0.88861327
   0.63779504  0.23186162  0.88861327
   0.11114732  0.27747785  0.78020134
   0.61114734  0.27747785  0.78020134
   0.13779507  0.73186163  0.38861330
   0.63779504  0.73186163  0.38861330
   0.11114732  0.77747788  0.28020134
   0.61114734  0.77747788  0.28020134
   0.12824452  0.24472394  0.99917941
   0.62824449  0.24472394  0.99917941
   0.12824452  0.74472394  0.49917938
   0.62824449  0.74472394  0.49917938
   0.37825664  0.75530430  0.99918208
   0.87825661  0.75530430  0.99918208
   0.37825664  0.25530430  0.49918208
   0.87825661  0.25530430  0.49918208
   0.39520585  0.75122518  0.65260244
   0.89520585  0.75122518  0.65260244
   0.39520585  0.25122521  0.15260245
   0.89520585  0.25122521  0.15260245
   0.40324454  0.75446322  0.45069839
   0.90324451  0.75446322  0.45069839
   0.40324454  0.25446319  0.95069839
   0.90324451  0.25446319  0.95069839
   0.14794176  0.24848035  0.54998207
   0.64794174  0.24848035  0.54998207
   0.14520377  0.24845919  0.65259449
   0.64520377  0.24845919  0.65259449
   0.14520377  0.74845919  0.15259447
   0.64520377  0.74845919  0.15259447
   0.14794176  0.74848032  0.04998208
   0.64794174  0.74848032  0.04998208
   0.15324467  0.24576201  0.45070289
   0.65324469  0.24576201  0.45070289
   0.15324467  0.74576200  0.95070292
   0.65324469  0.74576200  0.95070292
   0.39795331  0.75138107  0.54998189
   0.89795334  0.75138107  0.54998189
   0.39795331  0.25138107  0.04998190
   0.89795334  0.25138107  0.04998190
   0.29894220  0.54409162  0.05599760
   0.79894217  0.54409162  0.05599760
   0.15032403  0.30734946  0.40771156
   0.65032402  0.30734946  0.40771156
   0.26062214  0.47325149  0.13702161
   0.76062211  0.47325149  0.13702161
   0.15278527  0.19181646  0.30083007
   0.65278527  0.19181646  0.30083007
   0.25175564  0.49448664  0.24955834
   0.75175564  0.49448664  0.24955834
   0.01065255  0.96502480  0.04078366
   0.51065255  0.96502480  0.04078366
   0.04966943  0.05305881  0.14842926
   0.54966940  0.05305881  0.14842926
   0.29894220  0.04409161  0.55599762
   0.79894217  0.04409161  0.55599762
   0.15032403  0.80734949  0.90771156
   0.65032402  0.80734949  0.90771156
   0.26062214  0.97325152  0.63702159
   0.76062211  0.97325152  0.63702159
   0.15278527  0.69181643  0.80083004
   0.65278527  0.69181643  0.80083004
   0.25175564  0.99448667  0.74955834
   0.75175564  0.99448667  0.74955834
   0.01065255  0.46502480  0.54078366
   0.51065255  0.46502480  0.54078366
   0.04966943  0.55305880  0.64842923
   0.54966940  0.55305880  0.64842923
   0.06475797  0.43247118  0.95060225
   0.56475799  0.43247118  0.95060225
   0.41008962  0.67960443  0.59637012
   0.91008962  0.67960443  0.59637012
   0.01800352  0.50118151  0.86012943
   0.51800350  0.50118151  0.86012943
   0.38987283  0.80540865  0.69452220
   0.88987286  0.80540865  0.69452220
   0.00141739  0.50548520  0.74745840
   0.50141740  0.50548520  0.74745840
   0.26329387  0.03759518  0.96428318
   0.76329387  0.03759518  0.96428318
   0.26967984  0.99847524  0.85526260
   0.76967981  0.99847524  0.85526260
   0.06475797  0.93247118  0.45060225
   0.56475799  0.93247118  0.45060225
   0.41008962  0.17960440  0.09637014
   0.91008962  0.17960440  0.09637014
   0.01800352  0.00118154  0.36012943
   0.51800350  0.00118154  0.36012943
   0.38987283  0.30540865  0.19452220
   0.88987286  0.30540865  0.19452220
   0.00141739  0.00548523  0.24745837
   0.50141740  0.00548523  0.24745837
   0.26329387  0.53759515  0.46428321
   0.76329387  0.53759515  0.46428321
   0.26967984  0.49847527  0.35526257
   0.76967981  0.49847527  0.35526257
   0.04889455  0.45579147  0.05599387
   0.54889456  0.45579147  0.05599387
   0.40025177  0.69296679  0.40770494
   0.90025180  0.69296679  0.40770494
   0.01059806  0.52643109  0.13701821
   0.51059808  0.52643109  0.13701821
   0.40266912  0.80819465  0.30083343
   0.90266912  0.80819465  0.30083343
   0.00181732  0.50550827  0.24955884
   0.50181732  0.50550827  0.24955884
   0.26068966  0.03481733  0.04078505
   0.76068966  0.03481733  0.04078505
   0.29974329  0.94652854  0.14842781
   0.79974329  0.94652854  0.14842781
   0.04889455  0.95579147  0.55599389
   0.54889456  0.95579147  0.55599389
   0.40025177  0.19296682  0.90770497
   0.90025180  0.19296682  0.90770497
   0.01059806  0.02643109  0.63701820
   0.51059808  0.02643109  0.63701820
   0.40266912  0.30819465  0.80083340
   0.90266912  0.30819465  0.80083340
   0.00181732  0.00550830  0.74955886
   0.50181732  0.00550830  0.74955886
   0.26068966  0.53481731  0.54078507
   0.76068966  0.53481731  0.54078507
   0.29974329  0.44652851  0.64842780
   0.79974329  0.44652851  0.64842780
   0.31474801  0.56776586  0.95060102
   0.81474798  0.56776586  0.95060102
   0.15999028  0.32013820  0.59637177
   0.65999026  0.32013820  0.59637177
   0.26803637  0.49921898  0.86013188
   0.76803634  0.49921898  0.86013188
   0.13981804  0.19434910  0.69451424
   0.63981805  0.19434910  0.69451424
   0.25138077  0.49443999  0.74746234
   0.75138074  0.49443999  0.74746234
   0.01321475  0.96256750  0.96428363
   0.51321475  0.96256750  0.96428363
   0.01973922  0.00190826  0.85526100
   0.51973921  0.00190826  0.85526100
   0.31474801  0.06776584  0.45060102
   0.81474798  0.06776584  0.45060102
   0.15999028  0.82013817  0.09637177
   0.65999026  0.82013817  0.09637177
   0.26803637  0.99921895  0.36013188
   0.76803634  0.99921895  0.36013188
   0.13981804  0.69434911  0.19451421
   0.63981805  0.69434911  0.19451421
   0.25138077  0.99443996  0.24746237
   0.75138074  0.99443996  0.24746237
   0.01321475  0.46256750  0.46428363
   0.51321475  0.46256750  0.46428363
   0.01973922  0.50190828  0.35526100
   0.51973921  0.50190828  0.35526100
   0.16433779  0.16984666  0.50237792
   0.66433780  0.16984666  0.50237792
   0.16433779  0.66984665  0.00237792
   0.66433780  0.66984665  0.00237792
   0.41440176  0.83020228  0.50237625
   0.91440179  0.83020228  0.50237625
   0.41440176  0.33020228  0.00237626
   0.91440179  0.33020228  0.00237626
   0.14272571  0.23854194  0.34358141
   0.64272572  0.23854194  0.34358141
   0.14272571  0.73854194  0.84358141
   0.64272572  0.73854194  0.84358141
   0.39272192  0.76177881  0.34359485
   0.89272195  0.76177881  0.34359485
   0.39272192  0.26177881  0.84359488
   0.89272195  0.26177881  0.84359488
BiTiFeO                                 
           1
    10.927281    0.000032    0.008298
     0.000068    5.460116   -0.000660
     0.309175    0.012465   41.964766
   Bi   Ti   O    Fe
  40  24 120   8
Direct configuration=     4
   0.12485005  0.24744592  0.10417304
   0.62485004  0.24744592  0.10417304
   0.12273513  0.27130250  0.21961738
   0.62273511  0.27130250  0.21961738
   0.12485005  0.74744591  0.60417303
   0.62485004  0.74744591  0.60417303
   0.12273513  0.77130250  0.71961741
   0.62273511  0.77130250  0.71961741
   0.38777752  0.76832563  0.88861667
   0.88777752  0.76832563  0.88861667
   0.36114419  0.72238737  0.78019819
   0.86114419  0.72238737  0.78019819
   0.38777752  0.26832560  0.38861664
   0.88777752  0.26832560  0.38861664
   0.36114419  0.22238737  0.28019816
   0.86114419  0.22238737  0.28019816
   0.37487501  0.75233671  0.10417113
   0.87487498  0.75233671  0.10417113
   0.37273080  0.72878272  0.21962384
   0.87273077  0.72878272  0.21962384
   0.37487501  0.25233671  0.60417116
   0.87487498  0.25233671  0.60417116
   0.37273080  0.22878274  0.71962384
   0.87273077  0.22878274  0.71962384
   0.13778956  0.23186986  0.88861757
   0.63778953  0.23186986  0.88861757
   0.11114774  0.27744861  0.78019753
   0.61114775  0.27744861  0.78019753
   0.13778956  0.73186987  0.38861760
   0.63778953  0.73186987  0.38861760
   0.11114774  0.77744864  0.28019753
   0.61114775  0.77744864  0.28019753
   0.12823222  0.24473878  0.99918233
   0.62823219  0.24473878  0.99918233
   0.12823222  0.74473878  0.49918230
   0.62823219  0.74473878  0.49918230
   0.37824501  0.75529209  0.99918530
   0.87824498  0.75529209  0.99918530
   0.37824501  0.25529209  0.49918530
   0.87824498  0.25529209  0.49918530
   0.39521840  0.75120814  0.65255680
   0.89521840  0.75120814  0.65255680
   0.39521840  0.25120817  0.15255681
   0.89521840  0.25120817  0.15255681
   0.40325635  0.75445377  0.45072363
   0.90325632  0.75445377  0.45072363
   0.40325635  0.25445374  0.95072363
   0.90325632  0.25445374  0.95072363
   0.14795840  0.24849770  0.54998098
   0.64795839  0.24849770  0.54998098
   0.14521737  0.24848382  0.65254817
   0.64521737  0.24848382  0.65254817
   0.14521737  0.74848382  0.15254815
   0.64521737  0.74848382  0.15254815
   0.14795840  0.74849767  0.04998098
   0.64795839  0.74849767  0.04998098
   0.15325661  0.24577381  0.45072858
   0.65325662  0.24577381  0.45072858
   0.15325661  0.74577379  0.95072861
   0.65325662  0.74577379  0.95072861
   0.39797032  0.75136332  0.54998068
   0.89797035  0.75136332  0.54998068
   0.39797032  0.25136332  0.04998070
   0.89797035  0.25136332  0.04998070
   0.29894452  0.54412633  0.05600127
   0.79894449  0.54412633  0.05600127
   0.15032082  0.30738159  0.40770117
   0.65032080  0.30738159  0.40770117
   0.26062112  0.47321798  0.13702951
   0.76062109  0.47321798  0.13702951
   0.15279351  0.19182129  0.30082666
   0.65279351  0.19182129  0.30082666
   0.25174107  0.49448527  0.24955201
   0.75174107  0.49448527  0.24955201
   0.01064044  0.96500064  0.04078280
   0.51064044  0.96500064  0.04078280
   0.04968238  0.05308141  0.14842862
   0.54968236  0.05308141  0.14842862
   0.29894452  0.04412631  0.55600130
   0.79894449  0.04412631  0.55600130
   0.15032082  0.80738162  0.90770117
   0.65032080  0.80738162  0.90770117
   0.26062112  0.97321801  0.63702950
   0.76062109  0.97321801  0.63702950
   0.15279351  0.69182126  0.80082663
   0.65279351  0.69182126  0.80082663
   0.25174107  0.99448530  0.74955201
   0.75174107  0.99448530  0.74955201
   0.01064044  0.46500064  0.54078280
   0.51064044  0.46500064  0.54078280
   0.04968238  0.55308140  0.64842859
   0.54968236  0.55308140  0.64842859
   0.06477032  0.43244438  0.95060632
   0.56477034  0.43244438  0.95060632
   0.41010012  0.67958934  0.59636510
   0.91010012  0.67958934  0.59636510
   0.01800174  0.50117181  0.86012359
   0.51800172  0.50117181  0.86012359
   0.38987545  0.80546698  0.69456045
   0.88987548  0.80546698  0.69456045
   0.00140876  0.50546925  0.74746171
   0.50140877  0.50546925  0.74746171
   0.26329436  0.03760943  0.96428088
   0.76329436  0.03760943  0.96428088
   0.26967392  0.99847880  0.85526637
   0.76967389  0.99847880  0.85526637
   0.06477032  0.93244438  0.45060632
   0.56477034  0.93244438  0.45060632
   0.41010012  0.17958931  0.09636511
   0.91010012  0.17958931  0.09636511
   0.01800174  0.00117184  0.36012359
   0.51800172  0.00117184  0.36012359
   0.38987545  0.30546698  0.19456045
   0.88987548  0.30546698  0.19456045
   0.00140876  0.00546928  0.24746168
   0.50140877  0.00546928  0.24746168
   0.26329436  0.53760940  0.46428091
   0.76329436  0.53760940  0.46428091
   0.26967392  0.49847883  0.35526634
   0.76967389  0.49847883  0.35526634
   0.04889471  0.45576642  0.05599813
   0.54889472  0.45576642  0.05599813
   0.40023532  0.69293610  0.40769429
   0.90023535  0.69293610  0.40769429
   0.01059506  0.52647103  0.13702626
   0.51059509  0.52647103  0.13702626
   0.40265805  0.80819212  0.30082955
   0.90265805  0.80819212  0.30082955
   0.00180562  0.50551466  0.24955220
   0.50180562  0.50551466  0.24955220
   0.26067896  0.03483608  0.04078443
   0.76067896  0.03483608  0.04078443
   0.29976007  0.94650247  0.14842787
   0.79976007  0.94650247  0.14842787
   0.04889471  0.95576642  0.55599814
   0.54889472  0.95576642  0.55599814
   0.40023532  0.19293613  0.90769432
   0.90023535  0.19293613  0.90769432
   0.01059506  0.02647103  0.63702624
   0.51059509  0.02647103  0.63702624
   0.40265805  0.30819212  0.80082952
   0.90265805  0.30819212  0.80082952
   0.00180562  0.00551468  0.74955221
   0.50180562  0.00551468  0.74955221
   0.26067896  0.53483606  0.54078444
   0.76067896  0.53483606  0.54078444
   0.29976007  0.44650244  0.64842786
   0.79976007  0.44650244  0.64842786
   0.31475831  0.56778707  0.95060543
   0.81475828  0.56778707  0.95060543
   0.15999039  0.32015335  0.59636691
   0.65999037  0.32015335  0.59636691
   0.26803362  0.49922632  0.86012634
   0.76803359  0.49922632  0.86012634
   0.13981309  0.19429389  0.69455220
   0.63981310  0.19429389  0.69455220
   0.25136759  0.49445370  0.74746539
   0.75136756  0.49445370  0.74746539
   0.01321082  0.96254433  0.96428053
   0.51321082  0.96254433  0.96428053
   0.01973437  0.00190282  0.85526456
   0.51973437  0.00190282  0.85526456
   0.31475831  0.06778705  0.45060543
   0.81475828  0.06778705  0.45060543
   0.15999039  0.82015332  0.09636691
   0.65999037  0.82015332  0.09636691
   0.26803362  0.99922629  0.36012634
   0.76803359  0.99922629  0.36012634
   0.13981309  0.69429391  0.19455217
   0.63981310  0.69429391  0.19455217
   0.25136759  0.99445367  0.24746542
   0.75136756  0.99445367  0.24746542
   0.01321082  0.46254433  0.46428053
   0.51321082  0.46254433  0.46428053
   0.01973437  0.50190285  0.35526456
   0.51973437  0.50190285  0.35526456
   0.16432809  0.16984951  0.50238298
   0.66432810  0.16984951  0.50238298
   0.16432809  0.66984949  0.00238298
   0.66432810  0.66984949  0.00238298
   0.41440171  0.83020134  0.50238143
   0.91440174  0.83020134  0.50238143
   0.41440171  0.33020134  0.00238145
   0.91440174  0.33020134  0.00238145
   0.14273185  0.23853003  0.34358113
   0.64273187  0.23853003  0.34358113
   0.14273185  0.73853003  0.84358113
   0.64273187  0.73853003  0.84358113