BiTiFeO                                 
           1
    10.996542   -0.000216   -0.000015
    -0.001676    5.486538   -0.000532
    -0.000626    0.010506   40.679808
   Bi   Ti   O    Fe
  40  24 120   8
Direct configuration=     1
   0.12605807  0.24679923  0.10302612
   0.62605810  0.24679923  0.10302612
   0.11776067  0.27474177  0.21914273
   0.61776066  0.27474177  0.21914273
   0.12605807  0.74679923  0.60302615
   0.62605810  0.74679923  0.60302615
   0.11776067  0.77474177  0.71914268
   0.61776066  0.77474177  0.71914268
   0.37256750  0.75138861  0.89722747
   0.87256753  0.75138861  0.89722747
   0.36760294  0.72780615  0.78086728
   0.86760294  0.72780615  0.78086728
   0.37256750  0.25138861  0.39722750
   0.87256753  0.25138861  0.39722750
   0.36760294  0.22780618  0.28086725
   0.86760294  0.22780618  0.28086725
   0.37261328  0.75092864  0.10277281
   0.87261331  0.75092864  0.10277281
   0.36745206  0.72783649  0.21911950
   0.86745202  0.72783649  0.21911950
   0.37261328  0.25092870  0.60277283
   0.87261331  0.25092870  0.60277283
   0.36745206  0.22783646  0.71911955
   0.86745202  0.22783646  0.71911955
   0.12605621  0.24719204  0.89696789
   0.62605619  0.24719204  0.89696789
   0.11763009  0.27471042  0.78087258
   0.61763006  0.27471042  0.78087258
   0.12605621  0.74719209  0.39696789
   0.62605619  0.74719209  0.39696789
   0.11763009  0.77471042  0.28087261
   0.61763006  0.77471042  0.28087261
   0.12622732  0.24462394  0.00001983
   0.62622732  0.24462394  0.00001983
   0.12622732  0.74462396  0.50001985
   0.62622732  0.74462396  0.50001985
   0.37068650  0.76212794  0.99997657
   0.87068653  0.76212794  0.99997657
   0.37068650  0.26212797  0.49997652
   0.87068653  0.26212797  0.49997652
   0.14699255  0.25044850  0.34842843
   0.64699256  0.25044850  0.34842843
   0.14699255  0.75044846  0.84842849
   0.64699256  0.75044846  0.84842849
   0.39770585  0.74948257  0.34801245
   0.89770585  0.74948257  0.34801245
   0.39770585  0.24948259  0.84801245
   0.89770585  0.24948259  0.84801245
   0.39773974  0.74908102  0.65200514
   0.89773977  0.74908102  0.65200514
   0.39773974  0.24908104  0.15200515
   0.89773977  0.24908104  0.15200515
   0.39711922  0.75323200  0.45079693
   0.89711922  0.75323200  0.45079693
   0.39711922  0.25323197  0.95079690
   0.89711922  0.25323197  0.95079690
   0.14705260  0.25007761  0.65155405
   0.64705259  0.25007761  0.65155405
   0.14705260  0.75007761  0.15155406
   0.64705259  0.75007761  0.15155406
   0.39712018  0.75302225  0.54920340
   0.89712018  0.75302225  0.54920340
   0.39712018  0.25302225  0.04920337
   0.89712018  0.25302225  0.04920337
   0.30025047  0.54739213  0.05455772
   0.80025047  0.54739213  0.05455772
   0.16346088  0.32244620  0.40306520
   0.66346085  0.32244620  0.40306520
   0.26322308  0.47213692  0.13692120
   0.76322305  0.47213692  0.13692120
   0.14619434  0.18693599  0.30455831
   0.64619434  0.18693599  0.30455831
   0.25082427  0.49599117  0.25119370
   0.75082427  0.49599117  0.25119370
   0.00688072  0.96494079  0.03887197
   0.50688070  0.96494079  0.03887197
   0.05275915  0.05464066  0.14991270
   0.55275917  0.05464066  0.14991270
   0.30025047  0.04739216  0.55455768
   0.80025047  0.04739216  0.55455768
   0.16346088  0.82244623  0.90306520
   0.66346085  0.82244623  0.90306520
   0.26322308  0.97213697  0.63692117
   0.76322305  0.97213697  0.63692117
   0.14619434  0.68693596  0.80455834
   0.64619434  0.68693596  0.80455834
   0.25082427  0.99599123  0.75119370
   0.75082427  0.99599123  0.75119370
   0.00688072  0.46494082  0.53887194
   0.50688070  0.46494082  0.53887194
   0.05275915  0.55464071  0.64991271
   0.55275917  0.55464071  0.64991271
   0.05048285  0.44603905  0.94573390
   0.55048287  0.44603905  0.94573390
   0.40970519  0.67937398  0.59671587
   0.90970516  0.67937398  0.59671587
   0.01295838  0.52566534  0.86298114
   0.51295841  0.52566534  0.86298114
   0.39588741  0.81265163  0.69573384
   0.89588738  0.81265163  0.69573384
   0.00079605  0.50551856  0.74882656
   0.50079602  0.50551856  0.74882656
   0.25901201  0.03763495  0.96138507
   0.75901198  0.03763495  0.96138507
   0.30294299  0.94550955  0.84980214
   0.80294299  0.94550955  0.84980214
   0.05048285  0.94603908  0.44573388
   0.55048287  0.94603908  0.44573388
   0.40970519  0.17937397  0.09671588
   0.90970516  0.17937397  0.09671588
   0.01295838  0.02566536  0.36298111
   0.51295841  0.02566536  0.36298111
   0.39588741  0.31265160  0.19573384
   0.89588738  0.31265160  0.19573384
   0.00079605  0.00551861  0.24882658
   0.50079602  0.00551861  0.24882658
   0.25901201  0.53763497  0.46138504
   0.75901198  0.53763497  0.46138504
   0.30294299  0.44550961  0.34980217
   0.80294299  0.44550961  0.34980217
   0.05050899  0.44581282  0.05424448
   0.55050898  0.44581282  0.05424448
   0.40952814  0.67975223  0.40328261
   0.90952814  0.67975223  0.40328261
   0.01299173  0.52530110  0.13703892
   0.51299173  0.52530110  0.13703892
   0.39611092  0.81293541  0.30426982
   0.89611089  0.81293541  0.30426982
   0.00080875  0.50551122  0.25116217
   0.50080878  0.50551122  0.25116217
   0.25902057  0.03745908  0.03863307
   0.75902057  0.03745908  0.03863307
   0.30302608  0.94501984  0.15017815
   0.80302608  0.94501984  0.15017815
   0.05050899  0.94581276  0.55424452
   0.55050898  0.94581276  0.55424452
   0.40952814  0.17975227  0.90328264
   0.90952814  0.17975227  0.90328264
   0.01299173  0.02530106  0.63703889
   0.51299173  0.02530106  0.63703889
   0.39611092  0.31293547  0.80426979
   0.89611089  0.31293547  0.80426979
   0.00080875  0.00551124  0.75116217
   0.50080878  0.00551124  0.75116217
   0.25902057  0.53745908  0.53863305
   0.75902057  0.53745908  0.53863305
   0.30302608  0.44501984  0.65017819
   0.80302608  0.44501984  0.65017819
   0.30030385  0.54778570  0.94546902
   0.80030382  0.54778570  0.94546902
   0.16341908  0.32215512  0.59693909
   0.66341907  0.32215512  0.59693909
   0.26317331  0.47255921  0.86305886
   0.76317334  0.47255921  0.86305886
   0.14649281  0.18665862  0.69543850
   0.64649284  0.18665862  0.69543850
   0.25083291  0.49599722  0.74882281
   0.75083291  0.49599722  0.74882281
   0.00682420  0.96501028  0.96109945
   0.50682420  0.96501028  0.96109945
   0.05268741  0.05502335  0.85011584
   0.55268741  0.05502335  0.85011584
   0.30030385  0.04778567  0.44546905
   0.80030382  0.04778567  0.44546905
   0.16341908  0.82215512  0.09693912
   0.66341907  0.82215512  0.09693912
   0.26317331  0.97255921  0.36305881
   0.76317334  0.97255921  0.36305881
   0.14649281  0.68665862  0.19543846
   0.64649284  0.68665862  0.19543846
   0.25083291  0.99599725  0.24882278
   0.75083291  0.99599725  0.24882278
   0.00682420  0.46501028  0.46109945
   0.50682420  0.46501028  0.46109945
   0.05268741  0.55502337  0.35011592
   0.55268741  0.55502337  0.35011592
   0.16269741  0.16324866  0.49999973
   0.66269743  0.16324866  0.49999973
   0.16269741  0.66324872  0.99999976
   0.66269743  0.66324872  0.99999976
   0.41053125  0.83462661  0.49999830
   0.91053128  0.83462661  0.49999830
   0.41053125  0.33462668  0.99999833
   0.91053128  0.33462668  0.99999833
   0.14365307  0.24729428  0.54909080
   0.64365303  0.24729428  0.54909080
   0.14365307  0.74729425  0.04909079
   0.64365303  0.74729425  0.04909079
   0.14362682  0.24747287  0.45090580
   0.64362681  0.24747287  0.45090580
   0.14362682  0.74747288  0.95090580
   0.64362681  0.74747288  0.95090580
BiTiFeO                                 
           1
    11.003994   -0.000278   -0.000017
    -0.001708    5.490308   -0.000564
    -0.000634    0.010277   40.704339
   Bi   Ti   O    Fe
  40  24 120   8
Direct configuration=     2
   0.12606218  0.24680373  0.10301954
   0.62606221  0.24680373  0.10301954
   0.11771459  0.27476583  0.21914126
   0.61771458  0.27476583  0.21914126
   0.12606218  0.74680373  0.60301957
   0.62606221  0.74680373  0.60301957
   0.11771459  0.77476583  0.71914120
   0.61771458  0.77476583  0.71914120
   0.37257188  0.75138013  0.89723390
   0.87257191  0.75138013  0.89723390
   0.36755949  0.72780267  0.78086872
   0.86755949  0.72780267  0.78086872
   0.37257188  0.25138013  0.39723393
   0.87257191  0.25138013  0.39723393
   0.36755949  0.22780270  0.28086869
   0.86755949  0.22780270  0.28086869
   0.37261718  0.75093526  0.10276581
   0.87261721  0.75093526  0.10276581
   0.36741240  0.72783656  0.21911845
   0.86741237  0.72783656  0.21911845
   0.37261718  0.25093532  0.60276584
   0.87261721  0.25093532  0.60276584
   0.36741240  0.22783653  0.71911850
   0.86741237  0.22783653  0.71911850
   0.12605900  0.24718254  0.89697504
   0.62605898  0.24718254  0.89697504
   0.11758849  0.27473125  0.78087369
   0.61758847  0.27473125  0.78087369
   0.12605900  0.74718258  0.39697504
   0.62605898  0.74718258  0.39697504
   0.11758849  0.77473125  0.28087372
   0.61758847  0.77473125  0.28087372
   0.12622793  0.24461283  0.00001786
   0.62622793  0.24461283  0.00001786
   0.12622793  0.74461284  0.50001788
   0.62622793  0.74461284  0.50001788
   0.37069767  0.76212707  0.99997870
   0.87069770  0.76212707  0.99997870
   0.37069767  0.26212710  0.49997864
   0.87069770  0.26212710  0.49997864
   0.14699580  0.25044597  0.34843454
   0.64699582  0.25044597  0.34843454
   0.14699580  0.75044594  0.84843460
   0.64699582  0.75044594  0.84843460
   0.39770993  0.74947767  0.34801759
   0.89770993  0.74947767  0.34801759
   0.39770993  0.24947768  0.84801759
   0.89770993  0.24947768  0.84801759
   0.39774332  0.74908001  0.65199938
   0.89774335  0.74908001  0.65199938
   0.39774332  0.24908004  0.15199940
   0.89774335  0.24908004  0.15199940
   0.39712128  0.75323714  0.45079727
   0.89712128  0.75323714  0.45079727
   0.39712128  0.25323711  0.95079724
   0.89712128  0.25323711  0.95079724
   0.14705615  0.25007985  0.65154792
   0.64705614  0.25007985  0.65154792
   0.14705615  0.75007985  0.15154794
   0.64705614  0.75007985  0.15154794
   0.39712292  0.75302868  0.54920310
   0.89712292  0.75302868  0.54920310
   0.39712292  0.25302868  0.04920308
   0.89712292  0.25302868  0.04920308
   0.30029408  0.54734765  0.05454552
   0.80029408  0.54734765  0.05454552
   0.16342728  0.32245541  0.40307120
   0.66342725  0.32245541  0.40307120
   0.26327412  0.47211746  0.13691958
   0.76327409  0.47211746  0.13691958
   0.14618093  0.18689974  0.30456795
   0.64618093  0.18689974  0.30456795
   0.25078090  0.49597727  0.25120593
   0.75078090  0.49597727  0.25120593
   0.00691935  0.96495807  0.03886550
   0.50691933  0.96495807  0.03886550
   0.05274048  0.05463492  0.14989912
   0.55274051  0.05463492  0.14989912
   0.30029408  0.04734768  0.55454549
   0.80029408  0.04734768  0.55454549
   0.16342728  0.82245544  0.90307120
   0.66342725  0.82245544  0.90307120
   0.26327412  0.97211752  0.63691955
   0.76327409  0.97211752  0.63691955
   0.14618093  0.68689971  0.80456798
   0.64618093  0.68689971  0.80456798
   0.25078090  0.99597733  0.75120593
   0.75078090  0.99597733  0.75120593
   0.00691935  0.46495810  0.53886547
   0.50691933  0.46495810  0.53886547
   0.05274048  0.55463497  0.64989913
   0.55274051  0.55463497  0.64989913
   0.05044800  0.44606922  0.94574839
   0.55044802  0.44606922  0.94574839
   0.40972660  0.67936341  0.59670980
   0.90972657  0.67936341  0.59670980
   0.01293599  0.52568105  0.86298239
   0.51293601  0.52568105  0.86298239
   0.39591560  0.81269518  0.69572536
   0.89591557  0.81269518  0.69572536
   0.00077601  0.50555237  0.74881462
   0.50077598  0.50555237  0.74881462
   0.25903125  0.03761337  0.96138755
   0.75903122  0.03761337  0.96138755
   0.30298617  0.94550796  0.84981096
   0.80298617  0.94550796  0.84981096
   0.05044800  0.94606925  0.44574836
   0.55044802  0.94606925  0.44574836
   0.40972660  0.17936340  0.09670981
   0.90972657  0.17936340  0.09670981
   0.01293599  0.02568106  0.36298236
   0.51293601  0.02568106  0.36298236
   0.39591560  0.31269515  0.19572536
   0.89591557  0.31269515  0.19572536
   0.00077601  0.00555242  0.24881464
   0.50077598  0.00555242  0.24881464
   0.25903125  0.53761339  0.46138752
   0.75903122  0.53761339  0.46138752
   0.30298617  0.44550802  0.34981099
   0.80298617  0.44550802  0.34981099
   0.05047145  0.44584951  0.05423152
   0.55047144  0.44584951  0.05423152
   0.40955758  0.67973371  0.40328903
   0.90955758  0.67973371  0.40328903
   0.01297134  0.52532254  0.13703660
   0.51297133  0.52532254  0.13703660
   0.39612793  0.81297141  0.30427833
   0.89612790  0.81297141  0.30427833
   0.00079002  0.50554644  0.25117462
   0.50079004  0.50554644  0.25117462
   0.25904216  0.03743579  0.03862888
   0.75904216  0.03743579  0.03862888
   0.30306818  0.94502756  0.15016979
   0.80306818  0.94502756  0.15016979
   0.05047145  0.94584945  0.55423156
   0.55047144  0.94584945  0.55423156
   0.40955758  0.17973375  0.90328906
   0.90955758  0.17973375  0.90328906
   0.01297134  0.02532250  0.63703657
   0.51297133  0.02532250  0.63703657
   0.39612793  0.31297147  0.80427830
   0.89612790  0.31297147  0.80427830
   0.00079002  0.00554646  0.75117462
   0.50079004  0.00554646  0.75117462
   0.25904216  0.53743579  0.53862886
   0.75904216  0.53743579  0.53862886
   0.30306818  0.44502756  0.65016983
   0.80306818  0.44502756  0.65016983
   0.30034490  0.54772878  0.94547975
   0.80034487  0.54772878  0.94547975
   0.16338911  0.32216907  0.59693278
   0.66338910  0.32216907  0.59693278
   0.26322715  0.47253199  0.86306127
   0.76322718  0.47253199  0.86306127
   0.14647470  0.18662948  0.69542884
   0.64647473  0.18662948  0.69542884
   0.25079052  0.49598208  0.74880987
   0.75079052  0.49598208  0.74880987
   0.00686802  0.96503506  0.96110843
   0.50686802  0.96503506  0.96110843
   0.05267019  0.05501040  0.85012874
   0.55267019  0.05501040  0.85012874
   0.30034490  0.04772875  0.44547978
   0.80034487  0.04772875  0.44547978
   0.16338911  0.82216907  0.09693282
   0.66338910  0.82216907  0.09693282
   0.26322715  0.97253199  0.36306121
   0.76322718  0.97253199  0.36306121
   0.14647470  0.68662948  0.19542879
   0.64647473  0.68662948  0.19542879
   0.25079052  0.99598211  0.24880984
   0.75079052  0.99598211  0.24880984
   0.00686802  0.46503506  0.46110843
   0.50686802  0.46503506  0.46110843
   0.05267019  0.55501043  0.35012883
   0.55267019  0.55501043  0.35012883
   0.16266573  0.16323862  0.49999980
   0.66266576  0.16323862  0.49999980
   0.16266573  0.66323868  0.99999983
   0.66266576  0.66323868  0.99999983
   0.41056532  0.83462966  0.49999838
   0.91056534  0.83462966  0.49999838
   0.41056532  0.33462972  0.99999841
   0.91056534  0.33462972  0.99999841
   0.14365230  0.24728972  0.54909515
   0.64365227  0.24728972  0.54909515
   0.14365230  0.74728969  0.04909515
   0.64365227  0.74728969  0.04909515
   0.14362631  0.24746767  0.45090151
   0.64362629  0.24746767  0.45090151
   0.14362631  0.74746768  0.95090151
   0.64362629  0.74746768  0.95090151
BiTiFeO                                 
           1
    11.005000   -0.000298   -0.000020
    -0.001718    5.490642   -0.000607
    -0.000645    0.009955   40.693533
   Bi   Ti   O    Fe
  40  24 120   8
Direct configuration=     3
   0.12609937  0.24682601  0.10300510
   0.62609940  0.24682601  0.10300510
   0.11771423  0.27470520  0.21911797
   0.61771423  0.27470520  0.21911797
   0.12609937  0.74682601  0.60300513
   0.62609940  0.74682601  0.60300513
   0.11771423  0.77470520  0.71911791
   0.61771423  0.77470520  0.71911791
   0.37262552  0.75136039  0.89724643
   0.87262555  0.75136039  0.89724643
   0.36756193  0.72786601  0.78089110
   0.86756193  0.72786601  0.78089110
   0.37262552  0.25136039  0.39724646
   0.87262555  0.25136039  0.39724646
   0.36756193  0.22786604  0.28089107
   0.86756193  0.22786604  0.28089107
   0.37267310  0.75092065  0.10275327
   0.87267313  0.75092065  0.10275327
   0.36741670  0.72789257  0.21909657
   0.86741667  0.72789257  0.21909657
   0.37267310  0.25092071  0.60275330
   0.87267313  0.25092071  0.60275330
   0.36741670  0.22789254  0.71909661
   0.86741667  0.22789254  0.71909661
   0.12609845  0.24720273  0.89698963
   0.62609843  0.24720273  0.89698963
   0.11759047  0.27467768  0.78089628
   0.61759045  0.27467768  0.78089628
   0.12609845  0.74720277  0.39698963
   0.62609843  0.74720277  0.39698963
   0.11759047  0.77467768  0.28089631
   0.61759045  0.77467768  0.28089631
   0.12623767  0.24458903  0.00001712
   0.62623767  0.24458903  0.00001712
   0.12623767  0.74458905  0.50001713
   0.62623767  0.74458905  0.50001713
   0.37072122  0.76212605  0.99997929
   0.87072125  0.76212605  0.99997929
   0.37072122  0.26212608  0.49997923
   0.87072125  0.26212608  0.49997923
   0.14699723  0.25046538  0.34846192
   0.64699725  0.25046538  0.34846192
   0.14699723  0.75046535  0.84846198
   0.64699725  0.75046535  0.84846198
   0.39771431  0.74945642  0.34804253
   0.89771431  0.74945642  0.34804253
   0.39771431  0.24945643  0.84804253
   0.89771431  0.24945643  0.84804253
   0.39774938  0.74906396  0.65197225
   0.89774941  0.74906396  0.65197225
   0.39774938  0.24906399  0.15197226
   0.89774941  0.24906399  0.15197226
   0.39712109  0.75320017  0.45080442
   0.89712109  0.75320017  0.45080442
   0.39712109  0.25320014  0.95080439
   0.89712109  0.25320014  0.95080439
   0.14705581  0.25010451  0.65152271
   0.64705579  0.25010451  0.65152271
   0.14705581  0.75010451  0.15152272
   0.64705579  0.75010451  0.15152272
   0.39712551  0.75299305  0.54919655
   0.89712551  0.75299305  0.54919655
   0.39712551  0.25299305  0.04919653
   0.89712551  0.25299305  0.04919653
   0.30027068  0.54739258  0.05454034
   0.80027068  0.54739258  0.05454034
   0.16340306  0.32242220  0.40306707
   0.66340303  0.32242220  0.40306707
   0.26327419  0.47211583  0.13692083
   0.76327416  0.47211583  0.13692083
   0.14616642  0.18687333  0.30453672
   0.64616642  0.18687333  0.30453672
   0.25075495  0.49598081  0.25121449
   0.75075495  0.49598081  0.25121449
   0.00693659  0.96494186  0.03886573
   0.50693657  0.96494186  0.03886573
   0.05273718  0.05463971  0.14990150
   0.55273720  0.05463971  0.14990150
   0.30027068  0.04739261  0.55454030
   0.80027068  0.04739261  0.55454030
   0.16340306  0.82242223  0.90306707
   0.66340303  0.82242223  0.90306707
   0.26327419  0.97211589  0.63692080
   0.76327416  0.97211589  0.63692080
   0.14616642  0.68687330  0.80453675
   0.64616642  0.68687330  0.80453675
   0.25075495  0.99598087  0.75121449
   0.75075495  0.99598087  0.75121449
   0.00693659  0.46494189  0.53886570
   0.50693657  0.46494189  0.53886570
   0.05273718  0.55463976  0.64990151
   0.55273720  0.55463976  0.64990151
   0.05044582  0.44610609  0.94575282
   0.55044584  0.44610609  0.94575282
   0.40972708  0.67937854  0.59672203
   0.90972705  0.67937854  0.59672203
   0.01293092  0.52570814  0.86298183
   0.51293095  0.52570814  0.86298183
   0.39591786  0.81273323  0.69575970
   0.89591783  0.81273323  0.69575970
   0.00075251  0.50556071  0.74880630
   0.50075248  0.50556071  0.74880630
   0.25902558  0.03757405  0.96138373
   0.75902555  0.03757405  0.96138373
   0.30298441  0.94546792  0.84980633
   0.80298441  0.94546792  0.84980633
   0.05044582  0.94610612  0.44575279
   0.55044584  0.94610612  0.44575279
   0.40972708  0.17937852  0.09672205
   0.90972705  0.17937852  0.09672205
   0.01293092  0.02570816  0.36298180
   0.51293095  0.02570816  0.36298180
   0.39591786  0.31273320  0.19575970
   0.89591783  0.31273320  0.19575970
   0.00075251  0.00556077  0.24880632
   0.50075248  0.00556077  0.24880632
   0.25902558  0.53757407  0.46138370
   0.75902555  0.53757407  0.46138370
   0.30298441  0.44546798  0.34980636
   0.80298441  0.44546798  0.34980636
   0.05046926  0.44589281  0.05422845
   0.55046924  0.44589281  0.05422845
   0.40956363  0.67974600  0.40327633
   0.90956363  0.67974600  0.40327633
   0.01296529  0.52535117  0.13703685
   0.51296529  0.52535117  0.13703685
   0.39612523  0.81300409  0.30424486
   0.89612520  0.81300409  0.30424486
   0.00076365  0.50555724  0.25118322
   0.50076367  0.50555724  0.25118322
   0.25903571  0.03739531  0.03863177
   0.75903571  0.03739531  0.03863177
   0.30306644  0.94499861  0.15017523
   0.80306644  0.94499861  0.15017523
   0.05046926  0.94589275  0.55422848
   0.55046924  0.94589275  0.55422848
   0.40956363  0.17974605  0.90327636
   0.90956363  0.17974605  0.90327636
   0.01296529  0.02535113  0.63703682
   0.51296529  0.02535113  0.63703682
   0.39612523  0.31300415  0.80424483
   0.89612520  0.31300415  0.80424483
   0.00076365  0.00555725  0.75118322
   0.50076367  0.00555725  0.75118322
   0.25903571  0.53739531  0.53863176
   0.75903571  0.53739531  0.53863176
   0.30306644  0.44499861  0.65017528
   0.80306644  0.44499861  0.65017528
   0.30032167  0.54776504  0.94548381
   0.80032164  0.54776504  0.94548381
   0.16336853  0.32213489  0.59693691
   0.66336851  0.32213489  0.59693691
   0.26322644  0.47252726  0.86306020
   0.76322647  0.47252726  0.86306020
   0.14645804  0.18660834  0.69545894
   0.64645807  0.18660834  0.69545894
   0.25076139  0.49598326  0.74880111
   0.75076139  0.49598326  0.74880111
   0.00688622  0.96502383  0.96110919
   0.50688622  0.96502383  0.96110919
   0.05266789  0.05500522  0.85012548
   0.55266789  0.05500522  0.85012548
   0.30032167  0.04776501  0.44548384
   0.80032164  0.04776501  0.44548384
   0.16336853  0.82213489  0.09693695
   0.66336851  0.82213489  0.09693695
   0.26322644  0.97252726  0.36306014
   0.76322647  0.97252726  0.36306014
   0.14645804  0.68660834  0.19545890
   0.64645807  0.68660834  0.19545890
   0.25076139  0.99598329  0.24880108
   0.75076139  0.99598329  0.24880108
   0.00688622  0.46502383  0.46110919
   0.50688622  0.46502383  0.46110919
   0.05266789  0.55500524  0.35012556
   0.55266789  0.55500524  0.35012556
   0.16264590  0.16326913  0.49999981
   0.66264593  0.16326913  0.49999981
   0.16264590  0.66326919  0.99999984
   0.66264593  0.66326919  0.99999984
   0.41056983  0.83461556  0.49999876
   0.91056986  0.83461556  0.49999876
   0.41056983  0.33461562  0.99999879
   0.91056986  0.33461562  0.99999879
   0.14364980  0.24729969  0.54909132
   0.64364977  0.24729969  0.54909132
   0.14364980  0.74729966  0.04909131
   0.64364977  0.74729966  0.04909131
   0.14362570  0.24747748  0.45090513
   0.64362568  0.24747748  0.45090513
   0.14362570  0.74747750  0.95090513
   0.64362568  0.74747750  0.95090513
BiTiFeO                                 
           1
    11.001036   -0.000239   -0.000026
    -0.001688    5.488547   -0.000654
    -0.000668    0.009604   40.680124
   Bi   Ti   O    Fe
  40  24 120   8
Direct configuration=     4
   0.12612357  0.24684644  0.10300187
   0.62612360  0.24684644  0.10300187
   0.11768784  0.27468542  0.21911683
   0.61768783  0.27468542  0.21911683
   0.12612357  0.74684644  0.60300190
   0.62612360  0.74684644  0.60300190
   0.11768784  0.77468542  0.71911677
   0.61768783  0.77468542  0.71911677
   0.37265880  0.75133693  0.89724737
   0.87265883  0.75133693  0.89724737
   0.36753906  0.72789307  0.78089099
   0.86753906  0.72789307  0.78089099
   0.37265880  0.25133693  0.39724740
   0.87265883  0.25133693  0.39724740
   0.36753906  0.22789310  0.28089096
   0.86753906  0.22789310  0.28089096
   0.37270793  0.75090344  0.10275231
   0.87270796  0.75090344  0.10275231
   0.36739725  0.72790844  0.21909725
   0.86739722  0.72790844  0.21909725
   0.37270793  0.25090350  0.60275233
   0.87270796  0.25090350  0.60275233
   0.36739725  0.22790841  0.71909729
   0.86739722  0.22790841  0.71909729
   0.12612404  0.24722062  0.89699298
   0.62612402  0.24722062  0.89699298
   0.11756835  0.27466891  0.78089668
   0.61756833  0.27466891  0.78089668
   0.12612404  0.74722067  0.39699298
   0.62612402  0.74722067  0.39699298
   0.11756835  0.77466891  0.28089671
   0.61756833  0.77466891  0.28089671
   0.12624140  0.24458093  0.00001601
   0.62624140  0.24458093  0.00001601
   0.12624140  0.74458095  0.50001603
   0.62624140  0.74458095  0.50001603
   0.37072376  0.76210969  0.99998027
   0.87072379  0.76210969  0.99998027
   0.37072376  0.26210972  0.49998021
   0.87072379  0.26210972  0.49998021
   0.14700292  0.25044849  0.34844285
   0.64700293  0.25044849  0.34844285
   0.14700292  0.75044846  0.84844291
   0.64700293  0.75044846  0.84844291
   0.39771988  0.74946729  0.34801861
   0.89771988  0.74946729  0.34801861
   0.39771988  0.24946731  0.84801861
   0.89771988  0.24946731  0.84801861
   0.39775534  0.74908562  0.65199497
   0.89775537  0.74908562  0.65199497
   0.39775534  0.24908565  0.15199499
   0.89775537  0.24908565  0.15199499
   0.39712149  0.75318543  0.45080501
   0.89712149  0.75318543  0.45080501
   0.39712149  0.25318540  0.95080498
   0.89712149  0.25318540  0.95080498
   0.14706084  0.25009775  0.65154282
   0.64706082  0.25009775  0.65154282
   0.14706084  0.75009775  0.15154283
   0.64706082  0.75009775  0.15154283
   0.39712779  0.75298156  0.54919629
   0.89712779  0.75298156  0.54919629
   0.39712779  0.25298156  0.04919626
   0.89712779  0.25298156  0.04919626
   0.30026952  0.54738425  0.05453082
   0.80026952  0.54738425  0.05453082
   0.16338457  0.32239698  0.40306877
   0.66338454  0.32239698  0.40306877
   0.26327967  0.47211379  0.13691336
   0.76327964  0.47211379  0.13691336
   0.14615301  0.18690690  0.30455642
   0.64615301  0.18690690  0.30455642
   0.25073077  0.49598713  0.25122117
   0.75073077  0.49598713  0.25122117
   0.00694992  0.96495390  0.03886344
   0.50694990  0.96495390  0.03886344
   0.05273784  0.05464444  0.14989230
   0.55273787  0.05464444  0.14989230
   0.30026952  0.04738428  0.55453078
   0.80026952  0.04738428  0.55453078
   0.16338457  0.82239701  0.90306877
   0.66338454  0.82239701  0.90306877
   0.26327967  0.97211385  0.63691333
   0.76327964  0.97211385  0.63691333
   0.14615301  0.68690687  0.80455645
   0.64615301  0.68690687  0.80455645
   0.25073077  0.99598719  0.75122117
   0.75073077  0.99598719  0.75122117
   0.00694992  0.46495393  0.53886342
   0.50694990  0.46495393  0.53886342
   0.05273784  0.55464450  0.64989232
   0.55273787  0.55464450  0.64989232
   0.05042472  0.44613040  0.94576097
   0.55042474  0.44613040  0.94576097
   0.40973713  0.67939514  0.59672216
   0.90973710  0.67939514  0.59672216
   0.01292882  0.52573810  0.86298978
   0.51292885  0.52573810  0.86298978
   0.39593210  0.81271122  0.69574135
   0.89593207  0.81271122  0.69574135
   0.00073207  0.50557084  0.74879985
   0.50073204  0.50557084  0.74879985
   0.25904144  0.03755391  0.96138148
   0.75904141  0.03755391  0.96138148
   0.30299120  0.94542737  0.84981232
   0.80299120  0.94542737  0.84981232
   0.05042472  0.94613043  0.44576094
   0.55042474  0.94613043  0.44576094
   0.40973713  0.17939512  0.09672217
   0.90973710  0.17939512  0.09672217
   0.01292882  0.02573812  0.36298975
   0.51292885  0.02573812  0.36298975
   0.39593210  0.31271119  0.19574135
   0.89593207  0.31271119  0.19574135
   0.00073207  0.00557090  0.24879987
   0.50073204  0.00557090  0.24879987
   0.25904144  0.53755393  0.46138145
   0.75904141  0.53755393  0.46138145
   0.30299120  0.44542743  0.34981235
   0.80299120  0.44542743  0.34981235
   0.05044718  0.44592505  0.05422234
   0.55044716  0.44592505  0.05422234
   0.40958200  0.67975782  0.40327588
   0.90958200  0.67975782  0.40327588
   0.01296247  0.52538539  0.13702846
   0.51296247  0.52538539  0.13702846
   0.39613105  0.81297622  0.30426287
   0.89613102  0.81297622  0.30426287
   0.00073970  0.50556966  0.25119002
   0.50073972  0.50556966  0.25119002
   0.25905149  0.03737538  0.03863265
   0.75905149  0.03737538  0.03863265
   0.30307276  0.94497373  0.15017042
   0.80307276  0.94497373  0.15017042
   0.05044718  0.94592499  0.55422237
   0.55044716  0.94592499  0.55422237
   0.40958200  0.17975786  0.90327591
   0.90958200  0.17975786  0.90327591
   0.01296247  0.02538536  0.63702843
   0.51296247  0.02538536  0.63702843
   0.39613105  0.31297628  0.80426284
   0.89613102  0.31297628  0.80426284
   0.00073970  0.00556967  0.75119002
   0.50073972  0.00556967  0.75119002
   0.25905149  0.53737538  0.53863263
   0.75905149  0.53737538  0.53863263
   0.30307276  0.44497373  0.65017047
   0.80307276  0.44497373  0.65017047
   0.30031929  0.54774558  0.94549169
   0.80031926  0.54774558  0.94549169
   0.16335537  0.32210940  0.59693528
   0.66335536  0.32210940  0.59693528
   0.26323140  0.47251884  0.86306795
   0.76323143  0.47251884  0.86306795
   0.14644050  0.18664753  0.69543928
   0.64644053  0.18664753  0.69543928
   0.25073330  0.49598722  0.74879404
   0.75073330  0.49598722  0.74879404
   0.00690170  0.96504176  0.96111298
   0.50690169  0.96504176  0.96111298
   0.05266972  0.05499660  0.85013338
   0.55266972  0.05499660  0.85013338
   0.30031929  0.04774556  0.44549172
   0.80031926  0.04774556  0.44549172
   0.16335537  0.82210940  0.09693532
   0.66335536  0.82210940  0.09693532
   0.26323140  0.97251884  0.36306789
   0.76323143  0.97251884  0.36306789
   0.14644050  0.68664753  0.19543923
   0.64644053  0.68664753  0.19543923
   0.25073330  0.99598725  0.24879401
   0.75073330  0.99598725  0.24879401
   0.00690170  0.46504176  0.46111298
   0.50690169  0.46504176  0.46111298
   0.05266972  0.55499662  0.35013347
   0.55266972  0.55499662  0.35013347
   0.16263722  0.16328765  0.49999969
   0.66263725  0.16328765  0.49999969
   0.16263722  0.66328771  0.99999972
   0.66263725  0.66328771  0.99999972
   0.41058732  0.83459870  0.49999931
   0.91058735  0.83459870  0.49999931
   0.41058732  0.33459876  0.99999934
   0.91058735  0.33459876  0.99999934
   0.14365339  0.24729619  0.54908889
   0.64365336  0.24729619  0.54908889
   0.14365339  0.74729616  0.04908889
   0.64365336  0.74729616  0.04908889