BiTiFeO                                 
           1
    10.994776    0.000326   -0.000289
     0.000163    5.487224   -0.000405
    -0.001068    0.036172   40.687195
   Bi   Ti   O    Fe
  40  24 120   8
Direct configuration=     1
   0.12540500  0.24701200  0.10288400
   0.62540501  0.24701200  0.10288400
   0.11819500  0.27398101  0.21917300
   0.61819500  0.27398101  0.21917300
   0.12540500  0.74701202  0.60288399
   0.62540501  0.74701202  0.60288399
   0.11819500  0.77398098  0.71917301
   0.61819500  0.77398098  0.71917301
   0.37540501  0.75298798  0.89711601
   0.87540501  0.75298798  0.89711601
   0.36819500  0.72601902  0.78082699
   0.86819500  0.72601902  0.78082699
   0.37540501  0.25298801  0.39711601
   0.87540501  0.25298801  0.39711601
   0.36819500  0.22601899  0.28082699
   0.86819500  0.22601899  0.28082699
   0.37283501  0.75149101  0.10287400
   0.87283498  0.75149101  0.10287400
   0.36714301  0.72705799  0.21907400
   0.86714298  0.72705799  0.21907400
   0.37283501  0.25149101  0.60287398
   0.87283498  0.25149101  0.60287398
   0.36714301  0.22705799  0.71907401
   0.86714298  0.22705799  0.71907401
   0.12283500  0.24850901  0.89712602
   0.62283498  0.24850901  0.89712602
   0.11714300  0.27294201  0.78092599
   0.61714298  0.27294201  0.78092599
   0.12283500  0.74850899  0.39712599
   0.62283498  0.74850899  0.39712599
   0.11714300  0.77294201  0.28092599
   0.61714298  0.77294201  0.28092599
   0.12377300  0.23978201  0.00014700
   0.62377298  0.23978201  0.00014700
   0.12377300  0.73978198  0.50014699
   0.62377298  0.73978198  0.50014699
   0.37377301  0.76021802  0.99985301
   0.87377298  0.76021802  0.99985301
   0.37377301  0.26021799  0.49985298
   0.87377298  0.26021799  0.49985298
   0.14763600  0.25081900  0.34803700
   0.64763600  0.25081900  0.34803700
   0.14763600  0.75081903  0.84803700
   0.64763600  0.75081903  0.84803700
   0.39703199  0.74994498  0.34845200
   0.89703202  0.74994498  0.34845200
   0.39703199  0.24994500  0.84845197
   0.89703202  0.24994500  0.84845197
   0.39763600  0.74918097  0.65196300
   0.89763600  0.74918097  0.65196300
   0.39763600  0.24918100  0.15196300
   0.89763600  0.24918100  0.15196300
   0.14703199  0.25005498  0.65154803
   0.64703202  0.25005498  0.65154803
   0.14703199  0.75005502  0.15154800
   0.64703202  0.75005502  0.15154800
   0.14618400  0.24574500  0.45122001
   0.14618400  0.74574500  0.95121998
   0.39618501  0.75425500  0.54878002
   0.89618498  0.75425500  0.54878002
   0.39618501  0.25425500  0.04878000
   0.89618498  0.25425500  0.04878000
   0.89444798  0.75291300  0.45061901
   0.89444798  0.25291300  0.95061898
   0.29980001  0.54837298  0.05445400
   0.79979998  0.54837298  0.05445400
   0.16044800  0.32101300  0.40345299
   0.66044802  0.32101300  0.40345299
   0.26315701  0.47216600  0.13687401
   0.76315701  0.47216600  0.13687401
   0.14546900  0.18768901  0.30430800
   0.64546901  0.18768901  0.30430800
   0.25084099  0.49525800  0.25120100
   0.75084102  0.49525800  0.25120100
   0.00810100  0.96618199  0.03841900
   0.50810099  0.96618199  0.03841900
   0.05275800  0.05470400  0.14992800
   0.55275798  0.05470400  0.14992800
   0.29980001  0.04837300  0.55445403
   0.79979998  0.04837300  0.55445403
   0.16044800  0.82101297  0.90345299
   0.66044802  0.82101297  0.90345299
   0.26315701  0.97216600  0.63687402
   0.76315701  0.97216600  0.63687402
   0.14546900  0.68768799  0.80430800
   0.64546901  0.68768799  0.80430800
   0.25084099  0.99525797  0.75120097
   0.75084102  0.99525797  0.75120097
   0.00810100  0.46618199  0.53841901
   0.50810099  0.46618199  0.53841901
   0.05275800  0.55470401  0.64992797
   0.55275798  0.55470401  0.64992797
   0.04980000  0.45162699  0.94554597
   0.54979998  0.45162699  0.94554597
   0.41044802  0.67898703  0.59654701
   0.91044802  0.67898703  0.59654701
   0.01315700  0.52783400  0.86312598
   0.51315701  0.52783400  0.86312598
   0.39546901  0.81231201  0.69569200
   0.89546901  0.81231201  0.69569200
   0.00084100  0.50474203  0.74879903
   0.50084102  0.50474203  0.74879903
   0.25810099  0.03381800  0.96158099
   0.75810099  0.03381800  0.96158099
   0.30275801  0.94529599  0.85007203
   0.80275798  0.94529599  0.85007203
   0.04980000  0.95162702  0.44554600
   0.54979998  0.95162702  0.44554600
   0.41044802  0.17898700  0.09654700
   0.91044802  0.17898700  0.09654700
   0.01315700  0.02783400  0.36312601
   0.51315701  0.02783400  0.36312601
   0.39546901  0.31231201  0.19569200
   0.89546901  0.31231201  0.19569200
   0.00084100  0.00474200  0.24879900
   0.50084102  0.00474200  0.24879900
   0.25810099  0.53381801  0.46158099
   0.75810099  0.53381801  0.46158099
   0.30275801  0.44529599  0.35007200
   0.80275798  0.44529599  0.35007200
   0.05030400  0.44732001  0.05424400
   0.55030400  0.44732001  0.05424400
   0.41297299  0.67787600  0.40299299
   0.91297299  0.67787600  0.40299299
   0.01283000  0.52564299  0.13704200
   0.51283002  0.52564299  0.13704200
   0.39678100  0.81359398  0.30456999
   0.89678103  0.81359398  0.30456999
   0.00084700  0.50478500  0.25114101
   0.50084698  0.50478500  0.25114101
   0.25856200  0.03727600  0.03879400
   0.75856203  0.03727600  0.03879400
   0.30316600  0.94468802  0.15010300
   0.80316597  0.94468802  0.15010300
   0.05030400  0.94731998  0.55424398
   0.55030400  0.94731998  0.55424398
   0.41297299  0.17787600  0.90299302
   0.91297299  0.17787600  0.90299302
   0.01283000  0.02564300  0.63704199
   0.51283002  0.02564300  0.63704199
   0.39678100  0.31359401  0.80457002
   0.89678103  0.31359401  0.80457002
   0.00084700  0.00478500  0.75114101
   0.50084698  0.00478500  0.75114101
   0.25856200  0.53727603  0.53879398
   0.75856203  0.53727603  0.53879398
   0.30316600  0.44468799  0.65010297
   0.80316597  0.44468799  0.65010297
   0.30030400  0.55268002  0.94575602
   0.80030400  0.55268002  0.94575602
   0.16297300  0.32212400  0.59700698
   0.66297299  0.32212400  0.59700698
   0.26282999  0.47435701  0.86295801
   0.76283002  0.47435701  0.86295801
   0.14678100  0.18640600  0.69542998
   0.64678103  0.18640600  0.69542998
   0.25084701  0.49521601  0.74885899
   0.75084698  0.49521601  0.74885899
   0.00856200  0.96272397  0.96120602
   0.50856203  0.96272397  0.96120602
   0.05316600  0.05531200  0.84989703
   0.55316502  0.05531200  0.84989703
   0.30030400  0.05268000  0.44575599
   0.80030400  0.05268000  0.44575599
   0.16297300  0.82212400  0.09700700
   0.66297299  0.82212400  0.09700700
   0.26282999  0.97435701  0.36295801
   0.76283002  0.97435701  0.36295801
   0.14678100  0.68640602  0.19543000
   0.64678103  0.68640602  0.19543000
   0.25084701  0.99521500  0.24885900
   0.75084698  0.99521500  0.24885900
   0.00856200  0.46272400  0.46120599
   0.50856203  0.46272400  0.46120599
   0.05316600  0.55531198  0.34989700
   0.55316502  0.55531198  0.34989700
   0.16131300  0.16511400  0.49987301
   0.66131300  0.16511400  0.49987301
   0.16131300  0.66511500  0.99987298
   0.66131300  0.66511500  0.99987298
   0.41131300  0.83488500  0.50012702
   0.91131300  0.83488500  0.50012702
   0.41131300  0.33488601  0.00012700
   0.91131300  0.33488601  0.00012700
   0.39444801  0.75291300  0.45061901
   0.39444801  0.25291300  0.95061898
   0.14444800  0.24708700  0.54938102
   0.64444798  0.24708700  0.54938102
   0.14444800  0.74708700  0.04938100
   0.64444798  0.74708700  0.04938100
   0.64618498  0.24574500  0.45122001
   0.64618498  0.74574500  0.95121998
BiTiFeO                                 
           1
    11.006639    0.000204   -0.000435
     0.000102    5.492842   -0.001386
    -0.001610    0.028941   40.716393
   Bi   Ti   O    Fe
  40  24 120   8
Direct configuration=     2
   0.12568278  0.24694830  0.10294692
   0.62513764  0.24705082  0.10280399
   0.11820709  0.27402163  0.21916668
   0.61808884  0.27397009  0.21918188
   0.12568278  0.74694831  0.60294691
   0.62513764  0.74705083  0.60280399
   0.11820709  0.77402160  0.71916669
   0.61808884  0.77397006  0.71918189
   0.37780927  0.75323205  0.89739114
   0.87175331  0.75184285  0.89674891
   0.36840767  0.72590971  0.78085097
   0.86786044  0.72621780  0.78080023
   0.37780927  0.25323208  0.39739114
   0.87175331  0.25184288  0.39674891
   0.36840767  0.22590968  0.28085097
   0.86786044  0.22621777  0.28080023
   0.37308413  0.75146543  0.10280639
   0.87259148  0.75146815  0.10291411
   0.36718613  0.72703358  0.21907687
   0.86700946  0.72707223  0.21906514
   0.37308413  0.25146543  0.60280636
   0.87259148  0.25146815  0.60291409
   0.36718613  0.22703358  0.71907689
   0.86700946  0.22707223  0.71906515
   0.12590421  0.24857376  0.89646917
   0.62134696  0.24801256  0.89790278
   0.11729042  0.27289002  0.78085863
   0.61693901  0.27311438  0.78099185
   0.12590421  0.74857375  0.39646914
   0.62134696  0.74801255  0.39790275
   0.11729042  0.77289002  0.28085863
   0.61693901  0.77311438  0.28099185
   0.12700066  0.23915319  0.00076581
   0.62113074  0.24165671 -0.00051756
   0.12700066  0.73915316  0.50076579
   0.62113074  0.74165668  0.49948243
   0.37718431  0.76149597  0.99944970
   0.86977969  0.75962968  1.00033968
   0.37718431  0.26149594  0.49944967
   0.86977969  0.25962965  0.50033965
   0.14852291  0.25053868  0.34791686
   0.64668850  0.25163882  0.34860363
   0.14852291  0.75053871  0.84791686
   0.64668850  0.75163885  0.84860363
   0.39803534  0.74964958  0.34860372
   0.89612163  0.75071424  0.34788113
   0.39803534  0.24964960  0.84860369
   0.89612163  0.25071425  0.84788110
   0.39772134  0.74911309  0.65191378
   0.89755343  0.74925161  0.65199313
   0.39772134  0.24911312  0.15191378
   0.89755343  0.24925164  0.15199313
   0.14715457  0.25000562  0.65154831
   0.64692809  0.25012742  0.65150081
   0.14715457  0.75000565  0.15154828
   0.64692809  0.75012745  0.15150078
   0.15130828  0.24738384  0.45123468
   0.15130828  0.74738384  0.95123465
   0.39705944  0.75443102  0.54859560
   0.89533134  0.75326820  0.54944626
   0.39705944  0.25443102  0.04859558
   0.89533134  0.25326820  0.04944624
   0.89073779  0.75426668  0.45088526
   0.89073779  0.25426668  0.95088523
   0.29930745  0.54872723  0.05452880
   0.80075870  0.54739193  0.05439235
   0.15947338  0.32130629  0.40362723
   0.66241649  0.32172651  0.40310506
   0.26306816  0.47207069  0.13687485
   0.76336318  0.47217977  0.13687483
   0.14532693  0.18781790  0.30438757
   0.64561683  0.18724499  0.30414392
   0.25068812  0.49530784  0.25121684
   0.75092399  0.49516736  0.25121480
   0.00800217  0.96679464  0.03829705
   0.50766436  0.96623616  0.03858671
   0.05273144  0.05478682  0.14989718
   0.55273092  0.05463273  0.14993713
   0.29930745  0.04872724  0.55452883
   0.80075870  0.04739195  0.55439238
   0.15947338  0.82130626  0.90362723
   0.66241649  0.82172648  0.90310506
   0.26306816  0.97207069  0.63687486
   0.76336318  0.97217977  0.63687485
   0.14532693  0.68781689  0.80438757
   0.64561683  0.68724397  0.80414392
   0.25068812  0.99530781  0.75121681
   0.75092399  0.99516733  0.75121477
   0.00800217  0.46679464  0.53829706
   0.50766436  0.46623616  0.53858672
   0.05273144  0.55478683  0.64989715
   0.55273092  0.55463274  0.64993710
   0.04816952  0.44928569  0.94560460
   0.54987723  0.44838365  0.94541803
   0.41041861  0.67878710  0.59664067
   0.91045874  0.67923289  0.59639124
   0.01296656  0.52679898  0.86322948
   0.51268395  0.52803813  0.86297664
   0.39548119  0.81239452  0.69570198
   0.89551403  0.81232185  0.69567752
   0.00084615  0.50466854  0.74880291
   0.50078337  0.50480688  0.74876950
   0.25574263  0.03246668  0.96157955
   0.76254590  0.03923517  0.96135449
   0.30209716  0.94478561  0.85003067
   0.80403411  0.94650651  0.85012455
   0.04816952  0.94928572  0.44560463
   0.54987723  0.94838368  0.44541806
   0.41041861  0.17878707  0.09664066
   0.91045874  0.17923286  0.09639123
   0.01296656  0.02679898  0.36322951
   0.51268395  0.02803813  0.36297667
   0.39548119  0.31239452  0.19570198
   0.89551403  0.31232185  0.19567752
   0.00084615  0.00466851  0.24880288
   0.50078337  0.00480685  0.24876947
   0.25574263  0.53246668  0.46157955
   0.76254590  0.53923518  0.46135449
   0.30209716  0.44478561  0.35003064
   0.80403411  0.44650651  0.35012452
   0.05004858  0.44709208  0.05406860
   0.55008920  0.44698184  0.05437969
   0.41224465  0.67726270  0.40272087
   0.91252010  0.67958658  0.40350628
   0.01279309  0.52560112  0.13703166
   0.51282082  0.52568957  0.13705505
   0.39670084  0.81386141  0.30449318
   0.89683232  0.81322651  0.30473440
   0.00084997  0.50485930  0.25116841
   0.50079110  0.50476248  0.25113866
   0.25752178  0.03764368  0.03871684
   0.76019507  0.03757415  0.03885568
   0.30310513  0.94464285  0.15010740
   0.80332139  0.94479835  0.15009103
   0.05004858  0.94709205  0.55406858
   0.55008920  0.94698181  0.55437967
   0.41224465  0.17726270  0.90272089
   0.91252010  0.17958658  0.90350631
   0.01279309  0.02560113  0.63703164
   0.51282082  0.02568958  0.63705504
   0.39670084  0.31386143  0.80449321
   0.89683232  0.31322654  0.80473443
   0.00084997  0.00485930  0.75116841
   0.50079110  0.00476248  0.75113866
   0.25752178  0.53764371  0.53871682
   0.76019507  0.53757418  0.53885566
   0.30310513  0.44464282  0.65010737
   0.80332139  0.44479832  0.65009100
   0.29793092  0.55443769  0.94576753
   0.80391274  0.54589303  0.94574709
   0.16276777  0.32221681  0.59696955
   0.66315472  0.32214405  0.59706498
   0.26182858  0.47376992  0.86302857
   0.76452415  0.47401785  0.86294067
   0.14674599  0.18635429  0.69542284
   0.64680413  0.18634236  0.69543883
   0.25068889  0.49513285  0.74885384
   0.75093308  0.49519751  0.74883886
   0.00738375  0.96579256  0.96098115
   0.50735351  0.96378231  0.96159450
   0.05300823  0.05608409  0.85011524
   0.55274446  0.05519433  0.84969749
   0.29793092  0.05443768  0.44576750
   0.80391274  0.04589301  0.44574706
   0.16276777  0.82221681  0.09696957
   0.66315472  0.82214405  0.09706501
   0.26182858  0.97376992  0.36302857
   0.76452415  0.97401785  0.36294067
   0.14674599  0.68635431  0.19542285
   0.64680413  0.68634238  0.19543884
   0.25068889  0.99513184  0.24885386
   0.75093308  0.99519649  0.24883887
   0.00738375  0.46579259  0.46098112
   0.50735351  0.46378234  0.46159447
   0.05300823  0.55608406  0.35011521
   0.55274446  0.55519431  0.34969746
   0.15991380  0.16449939  0.49964685
   0.66331493  0.16467759  0.50031477
   0.15991380  0.66450039  0.99964682
   0.66331493  0.66467859  1.00031474
   0.41086584  0.83519816  0.50037863
   0.91128010  0.83398715  0.49948521
   0.41086584  0.33519917  0.00037862
   0.91128010  0.33398816 -0.00051481
   0.39818946  0.75234737  0.45061861
   0.39818946  0.25234737  0.95061858
   0.14512244  0.24711114  0.54948879
   0.64381448  0.24672149  0.54896890
   0.14512244  0.74711114  0.04948877
   0.64381448  0.74672149  0.04896888
   0.64164174  0.24526681  0.45104712
   0.64164174  0.74526681  0.95104709
BiTiFeO                                 
           1
    10.999356    0.000556   -0.000368
     0.000278    5.488172   -0.001116
    -0.001361    0.030912   40.668814
   Bi   Ti   O    Fe
  40  24 120   8
Direct configuration=     3
   0.12579697  0.24710991  0.10289987
   0.62518377  0.24691255  0.10283675
   0.11820060  0.27395373  0.21915822
   0.61808452  0.27392410  0.21916970
   0.12579697  0.74710993  0.60289987
   0.62518377  0.74691257  0.60283674
   0.11820060  0.77395370  0.71915824
   0.61808452  0.77392407  0.71916972
   0.37722534  0.75321083  0.89730560
   0.87262502  0.75201755  0.89683319
   0.36844616  0.72595605  0.78086286
   0.86772452  0.72644332  0.78083810
   0.37722534  0.25321086  0.39730560
   0.87262502  0.25201758  0.39683319
   0.36844616  0.22595602  0.28086286
   0.86772452  0.22644329  0.28083810
   0.37302540  0.75142253  0.10280124
   0.87269324  0.75132393  0.10289612
   0.36719250  0.72705611  0.21906069
   0.86701020  0.72717218  0.21905001
   0.37302540  0.25142253  0.60280122
   0.87269324  0.25132393  0.60289610
   0.36719250  0.22705611  0.71906070
   0.86701020  0.22717218  0.71905003
   0.12519694  0.24884536  0.89659561
   0.62199454  0.24781571  0.89786122
   0.11738177  0.27280211  0.78087882
   0.61694000  0.27331933  0.78102493
   0.12519694  0.74884535  0.39659558
   0.62199454  0.74781569  0.39786119
   0.11738177  0.77280211  0.28087882
   0.61694000  0.77331933  0.28102493
   0.12609623  0.23937370  0.00068706
   0.62171322  0.24200476 -0.00053186
   0.12609623  0.73937367  0.50068704
   0.62171322  0.74200473  0.49946812
   0.37667729  0.76167112  0.99953176
   0.87070480  0.75964998  1.00029452
   0.37667729  0.26167109  0.49953173
   0.87070480  0.25964995  0.50029449
   0.14760500  0.25065760  0.34814385
   0.64733572  0.25143901  0.34828059
   0.14760500  0.75065763  0.84814385
   0.64733572  0.75143903  0.84828059
   0.39749391  0.74961613  0.34839760
   0.89696499  0.75044839  0.34835090
   0.39749391  0.24961614  0.84839757
   0.89696499  0.25044840  0.84835087
   0.39765671  0.74908863  0.65193070
   0.89763115  0.74928020  0.65198807
   0.39765671  0.24908866  0.15193070
   0.89763115  0.24928023  0.15198807
   0.14711012  0.25001959  0.65151841
   0.64697854  0.25014044  0.65151232
   0.14711012  0.75001962  0.15151838
   0.64697854  0.75014047  0.15151229
   0.14763335  0.24686524  0.45127613
   0.14763335  0.74686524  0.95127610
   0.39628990  0.75460780  0.54883357
   0.89628858  0.75302497  0.54912543
   0.39628990  0.25460780  0.04883355
   0.89628858  0.25302497  0.04912541
   0.89472279  0.75348514  0.45082298
   0.89472279  0.25348514  0.95082295
   0.29963546  0.54804970  0.05452580
   0.80038919  0.54820146  0.05442618
   0.16002477  0.32127847  0.40353087
   0.66206082  0.32172644  0.40316456
   0.26312407  0.47203494  0.13687459
   0.76332750  0.47216358  0.13686412
   0.14534070  0.18763859  0.30424117
   0.64563500  0.18753563  0.30442843
   0.25067349  0.49530845  0.25122502
   0.75092692  0.49517865  0.25121675
   0.00803754  0.96675261  0.03835090
   0.50764465  0.96609005  0.03857423
   0.05269167  0.05479108  0.14989215
   0.55274357  0.05467296  0.14993466
   0.29963546  0.04804972  0.55452583
   0.80038919  0.04820147  0.55442621
   0.16002477  0.82127844  0.90353087
   0.66206082  0.82172641  0.90316456
   0.26312407  0.97203494  0.63687460
   0.76332750  0.97216358  0.63686413
   0.14534070  0.68763757  0.80424117
   0.64563500  0.68753462  0.80442843
   0.25067349  0.99530842  0.75122499
   0.75092692  0.99517862  0.75121672
   0.00803754  0.46675261  0.53835091
   0.50764465  0.46609005  0.53857424
   0.05269167  0.55479109  0.64989212
   0.55274357  0.55467297  0.64993463
   0.04909889  0.45058203  0.94556484
   0.54981479  0.44789470  0.94548205
   0.41044878  0.67886413  0.59659083
   0.91037744  0.67911988  0.59655047
   0.01317366  0.52698205  0.86317410
   0.51258943  0.52808944  0.86300995
   0.39548572  0.81238310  0.69569773
   0.89551223  0.81232735  0.69571172
   0.00081410  0.50464360  0.74879136
   0.50074890  0.50476475  0.74875707
   0.25715576  0.03450006  0.96158843
   0.76013157  0.03618223  0.96139017
   0.30268053  0.94531442  0.85009330
   0.80336078  0.94565319  0.85003254
   0.04909889  0.95058206  0.44556487
   0.54981479  0.94789473  0.44548208
   0.41044878  0.17886410  0.09659082
   0.91037744  0.17911985  0.09655046
   0.01317366  0.02698206  0.36317413
   0.51258943  0.02808944  0.36300998
   0.39548572  0.31238310  0.19569773
   0.89551223  0.31232735  0.19571172
   0.00081410  0.00464357  0.24879133
   0.50074890  0.00476472  0.24875704
   0.25715576  0.53450006  0.46158843
   0.76013157  0.53618224  0.46139017
   0.30268053  0.44531442  0.35009327
   0.80336078  0.44565319  0.35003251
   0.05007137  0.44708310  0.05409149
   0.55006916  0.44710902  0.05434423
   0.41222911  0.67732602  0.40277929
   0.91215204  0.67940405  0.40340439
   0.01276497  0.52558171  0.13703067
   0.51281367  0.52568945  0.13705031
   0.39671907  0.81371694  0.30459968
   0.89674745  0.81370801  0.30430622
   0.00081545  0.50486794  0.25117093
   0.50073868  0.50476585  0.25114094
   0.25816331  0.03790293  0.03875633
   0.75956188  0.03700245  0.03884327
   0.30314986  0.94466289  0.15010607
   0.80328963  0.94477687  0.15009678
   0.05007137  0.94708307  0.55409147
   0.55006916  0.94710899  0.55434421
   0.41222911  0.17732602  0.90277932
   0.91215204  0.17940405  0.90340442
   0.01276497  0.02558172  0.63703066
   0.51281367  0.02568946  0.63705030
   0.39671907  0.31371697  0.80459971
   0.89674745  0.31370804  0.80430625
   0.00081545  0.00486794  0.75117093
   0.50073868  0.00476585  0.75114094
   0.25816331  0.53790296  0.53875631
   0.75956188  0.53700248  0.53884325
   0.30314986  0.44466286  0.65010604
   0.80328963  0.44477684  0.65009675
   0.29966038  0.55193623  0.94573295
   0.80174881  0.54961988  0.94570463
   0.16282048  0.32227427  0.59701598
   0.66308712  0.32204308  0.59700023
   0.26253133  0.47351733  0.86300650
   0.76371982  0.47455642  0.86295439
   0.14673017  0.18633194  0.69544659
   0.64679698  0.18635817  0.69543369
   0.25069112  0.49517291  0.74884704
   0.75090199  0.49506608  0.74882185
   0.00792764  0.96474215  0.96101864
   0.50731907  0.96397678  0.96160438
   0.05313362  0.05576004  0.85009128
   0.55270721  0.05522233  0.84971617
   0.29966038  0.05193622  0.44573292
   0.80174881  0.04961987  0.44570460
   0.16282048  0.82227427  0.09701600
   0.66308712  0.82204308  0.09700025
   0.26253133  0.97351733  0.36300650
   0.76371982  0.97455642  0.36295439
   0.14673017  0.68633196  0.19544661
   0.64679698  0.68635819  0.19543371
   0.25069112  0.99517189  0.24884706
   0.75090199  0.99506507  0.24882187
   0.00792764  0.46474218  0.46101861
   0.50731907  0.46397681  0.46160435
   0.05313362  0.55576002  0.35009125
   0.55270721  0.55522231  0.34971614
   0.16038502  0.16476068  0.49974525
   0.66285380  0.16442690  0.50020919
   0.16038502  0.66476168  0.99974522
   0.66285380  0.66442790  1.00020916
   0.41085725  0.83516850  0.50024163
   0.91118343  0.83430453  0.49975714
   0.41085725  0.33516951  0.00024162
   0.91118343  0.33430554 -0.00024288
   0.39697157  0.75244415  0.45060020
   0.39697157  0.25244415  0.95060017
   0.14470201  0.24701384  0.54934513
   0.64409448  0.24684189  0.54907194
   0.14470201  0.74701384  0.04934511
   0.64409448  0.74684189  0.04907192
   0.64262529  0.24548521  0.45099602
   0.64262529  0.74548521  0.95099599
BiTiFeO                                 
           1
    11.002965    0.000603   -0.000361
     0.000301    5.490104   -0.000948
    -0.001335    0.032174   40.695189
   Bi   Ti   O    Fe
  40  24 120   8
Direct configuration=     4
   0.12584298  0.24712546  0.10293841
   0.62523415  0.24681422  0.10283389
   0.11807050  0.27390635  0.21919671
   0.61809484  0.27399531  0.21917612
   0.12584298  0.74712547  0.60293840
   0.62523415  0.74681423  0.60283389
   0.11807050  0.77390632  0.71919672
   0.61809484  0.77399528  0.71917614
   0.37723643  0.75311137  0.89727136
   0.87210736  0.75174697  0.89689612
   0.36829996  0.72603230  0.78084061
   0.86774508  0.72641119  0.78083512
   0.37723643  0.25311140  0.39727136
   0.87210736  0.25174700  0.39689612
   0.36829996  0.22603227  0.28084061
   0.86774508  0.22641116  0.28083512
   0.37305340  0.75135186  0.10280691
   0.87258710  0.75120307  0.10290695
   0.36708883  0.72696545  0.21907204
   0.86704925  0.72720513  0.21908143
   0.37305340  0.25135186  0.60280689
   0.87258710  0.25120307  0.60290693
   0.36708883  0.22696545  0.71907205
   0.86704925  0.22720513  0.71908144
   0.12576420  0.24902459  0.89652060
   0.62203098  0.24751995  0.89790473
   0.11725425  0.27292580  0.78085141
   0.61698287  0.27346705  0.78101451
   0.12576420  0.74902457  0.39652057
   0.62203098  0.74751994  0.39790470
   0.11725425  0.77292580  0.28085141
   0.61698287  0.77346705  0.28101451
   0.12655563  0.23948379  0.00083010
   0.62177156  0.24260473 -0.00069064
   0.12655563  0.73948376  0.50083008
   0.62177156  0.74260470  0.49930935
   0.37688139  0.76213454  0.99946865
   0.86988263  0.75950563  1.00036219
   0.37688139  0.26213451  0.49946862
   0.86988263  0.25950560  0.50036216
   0.14768144  0.25029278  0.34803598
   0.64712571  0.25180357  0.34831923
   0.14768144  0.75029280  0.84803598
   0.64712571  0.75180360  0.84831923
   0.39770853  0.74932075  0.34843165
   0.89694529  0.75090024  0.34807532
   0.39770853  0.24932076  0.84843162
   0.89694529  0.25090025  0.84807529
   0.39768114  0.74905402  0.65195909
   0.89765611  0.74927257  0.65200169
   0.39768114  0.24905405  0.15195909
   0.89765611  0.24927260  0.15200169
   0.14703613  0.25005640  0.65155357
   0.64705766  0.25016236  0.65151477
   0.14703613  0.75005643  0.15155354
   0.64705766  0.75016239  0.15151474
   0.14739367  0.24688518  0.45132478
   0.14739367  0.74688518  0.95132475
   0.39640132  0.75482874  0.54890883
   0.89626315  0.75275501  0.54906610
   0.39640132  0.25482874  0.04890881
   0.89626315  0.25275501  0.04906608
   0.89501690  0.75371576  0.45089589
   0.89501690  0.25371576  0.95089586
   0.29950535  0.54789315  0.05456015
   0.80058400  0.54817440  0.05440826
   0.16023310  0.32127315  0.40352314
   0.66211585  0.32193018  0.40316204
   0.26315571  0.47197045  0.13685899
   0.76333013  0.47220239  0.13684959
   0.14533992  0.18793550  0.30441684
   0.64568980  0.18734501  0.30446596
   0.25075777  0.49526931  0.25123103
   0.75079084  0.49520954  0.25121468
   0.00823864  0.96681666  0.03837369
   0.50744633  0.96590312  0.03859701
   0.05274662  0.05475626  0.14986176
   0.55270351  0.05470587  0.14992850
   0.29950535  0.04789316  0.55456018
   0.80058400  0.04817442  0.55440829
   0.16023310  0.82127312  0.90352314
   0.66211585  0.82193015  0.90316204
   0.26315571  0.97197045  0.63685900
   0.76333013  0.97220239  0.63684960
   0.14533992  0.68793448  0.80441684
   0.64568980  0.68734400  0.80446596
   0.25075777  0.99526928  0.75123100
   0.75079084  0.99520951  0.75121465
   0.00823864  0.46681666  0.53837370
   0.50744633  0.46590312  0.53859702
   0.05274662  0.55475627  0.64986173
   0.55270351  0.55470589  0.64992847
   0.04957786  0.45133736  0.94552655
   0.55000847  0.44698682  0.94555333
   0.41041127  0.67879644  0.59660564
   0.91038613  0.67919465  0.59657190
   0.01329676  0.52666316  0.86315734
   0.51254542  0.52832925  0.86302599
   0.39550653  0.81238092  0.69566858
   0.89552903  0.81231414  0.69570742
   0.00082722  0.50471478  0.74876656
   0.50073406  0.50473719  0.74876359
   0.25732529  0.03482327  0.96159394
   0.75989000  0.03610364  0.96130775
   0.30255868  0.94493064  0.85015661
   0.80344475  0.94600800  0.84995826
   0.04957786  0.95133739  0.44552658
   0.55000847  0.94698685  0.44555336
   0.41041127  0.17879641  0.09660563
   0.91038613  0.17919462  0.09657189
   0.01329676  0.02666316  0.36315737
   0.51254542  0.02832925  0.36302602
   0.39550653  0.31238092  0.19566858
   0.89552903  0.31231414  0.19570742
   0.00082722  0.00471476  0.24876653
   0.50073406  0.00473716  0.24876356
   0.25732529  0.53482328  0.46159394
   0.75989000  0.53610365  0.46130775
   0.30255868  0.44493064  0.35015658
   0.80344475  0.44600800  0.34995823
   0.05018073  0.44715547  0.05405476
   0.54989922  0.44714080  0.05435433
   0.41222453  0.67710405  0.40279683
   0.91184264  0.67980417  0.40339219
   0.01282591  0.52558781  0.13702099
   0.51276449  0.52569422  0.13704146
   0.39670432  0.81391258  0.30451480
   0.89672064  0.81329771  0.30449432
   0.00081438  0.50484750  0.25115970
   0.50071587  0.50480213  0.25116025
   0.25821391  0.03804068  0.03876690
   0.75960919  0.03679480  0.03882613
   0.30317544  0.94467045  0.15009212
   0.80326173  0.94478044  0.15009899
   0.05018073  0.94715544  0.55405474
   0.54989922  0.94714077  0.55435432
   0.41222453  0.17710405  0.90279686
   0.91184264  0.17980417  0.90339222
   0.01282591  0.02558782  0.63702098
   0.51276449  0.02569423  0.63704144
   0.39670432  0.31391261  0.80451483
   0.89672064  0.31329774  0.80449435
   0.00081438  0.00484750  0.75115970
   0.50071587  0.00480213  0.75116025
   0.25821391  0.53804071  0.53876688
   0.75960919  0.53679483  0.53882611
   0.30317544  0.44467042  0.65009209
   0.80326173  0.44478041  0.65009896
   0.29978095  0.55158090  0.94570927
   0.80127111  0.54945858  0.94568793
   0.16284785  0.32230853  0.59699362
   0.66309130  0.32199077  0.59696181
   0.26255485  0.47352234  0.86302195
   0.76371153  0.47447795  0.86298392
   0.14673635  0.18639081  0.69539524
   0.64678604  0.18634833  0.69540239
   0.25077316  0.49520844  0.74883954
   0.75074663  0.49506147  0.74881641
   0.00824330  0.96444375  0.96098251
   0.50720236  0.96375045  0.96169332
   0.05313051  0.05579413  0.85015377
   0.55269678  0.05509316  0.84970281
   0.29978095  0.05158088  0.44570924
   0.80127111  0.04945857  0.44568790
   0.16284785  0.82230853  0.09699364
   0.66309130  0.82199077  0.09696183
   0.26255485  0.97352234  0.36302195
   0.76371153  0.97447795  0.36298392
   0.14673635  0.68639082  0.19539526
   0.64678604  0.68634834  0.19540240
   0.25077316  0.99520743  0.24883956
   0.75074663  0.99506046  0.24881642
   0.00824330  0.46444378  0.46098248
   0.50720236  0.46375048  0.46169329
   0.05313051  0.55579411  0.35015374
   0.55269678  0.55509314  0.34970278
   0.16043389  0.16493109  0.49974249
   0.66285516  0.16411691  0.50016042
   0.16043389  0.66493209  0.99974247
   0.66285516  0.66411791  1.00016039
   0.41081986  0.83534387  0.50023828
   0.91122242  0.83415451  0.49983004
   0.41081986  0.33534488  0.00023827
   0.91122242  0.33415552 -0.00016998
   0.39620224  0.75254171  0.45057018
   0.39620224  0.25254171  0.95057015
   0.14465200  0.24692581  0.54927584
   0.64408728  0.24691235  0.54911020