BiTiFeO                                 
           1
    10.940770    0.000000    0.000000
     0.000000    5.465029   -0.000935
     0.000000   -0.022864   41.800039
   Bi   Ti   O    Fe
  40  24 120   8
Direct configuration=     1
   0.12516382  0.24104662  0.10746631
   0.62516379  0.24104662  0.10746631
   0.10810125  0.26980960  0.21952957
   0.60810125  0.26980960  0.21952957
   0.12516382  0.74104661  0.60746634
   0.62516379  0.74104661  0.60746634
   0.10810125  0.76980960  0.71952951
   0.60810125  0.76980960  0.71952951
   0.37516379  0.75895339  0.89253366
   0.87516379  0.75895339  0.89253366
   0.35810122  0.73019040  0.78047049
   0.85810125  0.73019040  0.78047049
   0.37516379  0.25895339  0.39253372
   0.87516379  0.25895339  0.39253372
   0.35810122  0.23019038  0.28047043
   0.85810125  0.23019038  0.28047043
   0.37747005  0.76506728  0.10802029
   0.87747002  0.76506728  0.10802029
   0.37148091  0.72243607  0.21982425
   0.87148094  0.72243607  0.21982425
   0.37747005  0.26506734  0.60802031
   0.87747002  0.26506734  0.60802031
   0.37148091  0.22243608  0.71982431
   0.87148094  0.22243608  0.71982431
   0.12747006  0.23493268  0.89197969
   0.62747008  0.23493268  0.89197969
   0.12148093  0.27756393  0.78017569
   0.62148094  0.27756393  0.78017569
   0.12747006  0.73493272  0.39197972
   0.62747008  0.73493272  0.39197972
   0.12148093  0.77756393  0.28017575
   0.62148094  0.77756393  0.28017575
   0.13181518  0.24212791  0.99995172
   0.63181520  0.24212791  0.99995172
   0.13181518  0.74212790  0.49995175
   0.63181520  0.74212790  0.49995175
   0.38181516  0.75787210  0.00004828
   0.88181520  0.75787210  0.00004828
   0.38181516  0.25787210  0.50004822
   0.88181520  0.25787210  0.50004822
   0.39156437  0.75502366  0.34643784
   0.89156437  0.75502366  0.34643784
   0.39156437  0.25502369  0.84643787
   0.89156437  0.25502369  0.84643787
   0.40393534  0.75449985  0.45062262
   0.90393531  0.75449985  0.45062262
   0.40393534  0.25449988  0.95062262
   0.90393531  0.25449988  0.95062262
   0.15393534  0.24550013  0.54937738
   0.65393531  0.24550013  0.54937738
   0.14156437  0.24497633  0.65356213
   0.64156437  0.24497633  0.65356213
   0.14156437  0.74497634  0.15356216
   0.64156437  0.74497634  0.15356216
   0.15393534  0.74550015  0.04937739
   0.65393531  0.74550015  0.04937739
   0.15358011  0.24448685  0.45091006
   0.65358013  0.24448685  0.45091006
   0.15358011  0.74448687  0.95091003
   0.65358013  0.74448687  0.95091003
   0.40358013  0.75551313  0.54908997
   0.90358013  0.75551313  0.54908997
   0.40358013  0.25551313  0.04908995
   0.90358013  0.25551313  0.04908995
   0.31285405  0.56213927  0.05276722
   0.81285405  0.56213927  0.05276722
   0.15978974  0.31509411  0.40647736
   0.65978974  0.31509411  0.40647736
   0.26216805  0.48636272  0.13892193
   0.76216805  0.48636272  0.13892193
   0.15340531  0.19019522  0.30207881
   0.65340531  0.19019522  0.30207881
   0.24918999  0.49782550  0.25059822
   0.74918997  0.49782550  0.25059822
   0.01554154  0.96257585  0.03761902
   0.51554155  0.96257585  0.03761902
   0.02909012  0.02258696  0.14559396
   0.52909011  0.02258696  0.14559396
   0.31285405  0.06213930  0.55276722
   0.81285405  0.06213930  0.55276722
   0.15978974  0.81509411  0.90647733
   0.65978974  0.81509411  0.90647733
   0.26216805  0.98636276  0.63892192
   0.76216805  0.98636276  0.63892192
   0.15340531  0.69019520  0.80207878
   0.65340531  0.69019520  0.80207878
   0.24918999  0.99782556  0.75059825
   0.74918997  0.99782556  0.75059825
   0.01554154  0.46257591  0.53761900
   0.51554155  0.46257591  0.53761900
   0.02909012  0.52258700  0.64559400
   0.52909011  0.52258700  0.64559400
   0.06285408  0.43786067  0.94723278
   0.56285405  0.43786067  0.94723278
   0.40978974  0.68490589  0.59352267
   0.90978974  0.68490589  0.59352267
   0.01216805  0.51363724  0.86107808
   0.51216805  0.51363724  0.86107808
   0.40340534  0.80980480  0.69792122
   0.90340531  0.80980480  0.69792122
   0.99918997  0.50217444  0.74940175
   0.49918997  0.50217444  0.74940175
   0.26554152  0.03742410  0.96238100
   0.76554155  0.03742410  0.96238100
   0.27909014  0.97741300  0.85440600
   0.77909017  0.97741300  0.85440600
   0.06285408  0.93786073  0.44723278
   0.56285405  0.93786073  0.44723278
   0.40978974  0.18490589  0.09352267
   0.90978974  0.18490589  0.09352267
   0.01216805  0.01363726  0.36107808
   0.51216805  0.01363726  0.36107808
   0.40340534  0.30980483  0.19792119
   0.90340531  0.30980483  0.19792119
   0.99918997  0.00217449  0.24940178
   0.49918997  0.00217449  0.24940178
   0.26554152  0.53742415  0.46238095
   0.76554155  0.53742415  0.46238095
   0.27909014  0.47741306  0.35440603
   0.77909017  0.47741306  0.35440603
   0.06280723  0.43986550  0.05276609
   0.56280720  0.43986550  0.05276609
   0.40822765  0.68795699  0.40557778
   0.90822768  0.68795699  0.40557778
   0.01230938  0.51268965  0.13805021
   0.51230937  0.51268965  0.13805021
   0.38644177  0.79911977  0.30375224
   0.88644177  0.79911977  0.30375224
   0.00008938  0.50838178  0.25148514
   0.50008941  0.50838178  0.25148514
   0.26483259  0.03836146  0.03786575
   0.76483262  0.03836146  0.03786575
   0.28119352  0.97788066  0.14655109
   0.78119349  0.97788066  0.14655109
   0.06280723  0.93986547  0.55276614
   0.56280720  0.93986547  0.55276614
   0.40822765  0.18795700  0.90557778
   0.90822768  0.18795700  0.90557778
   0.01230938  0.01268960  0.63805020
   0.51230937  0.01268960  0.63805020
   0.38644177  0.29911983  0.80375218
   0.88644177  0.29911983  0.80375218
   0.00008938  0.00838179  0.75148517
   0.50008941  0.00838179  0.75148517
   0.26483259  0.53836149  0.53786576
   0.76483262  0.53836149  0.53786576
   0.28119352  0.47788066  0.64655113
   0.78119349  0.47788066  0.64655113
   0.31280723  0.56013453  0.94723386
   0.81280720  0.56013453  0.94723386
   0.15822764  0.31204301  0.59442222
   0.65822762  0.31204301  0.59442222
   0.26230934  0.48731041  0.86194980
   0.76230931  0.48731041  0.86194980
   0.13644178  0.20088020  0.69624782
   0.63644177  0.20088020  0.69624782
   0.25008941  0.49161822  0.74851483
   0.75008941  0.49161822  0.74851483
   0.01483259  0.96163851  0.96213424
   0.51483262  0.96163851  0.96213424
   0.03119352  0.02211933  0.85344887
   0.53119349  0.02211933  0.85344887
   0.31280723  0.06013447  0.44723391
   0.81280720  0.06013447  0.44723391
   0.15822764  0.81204301  0.09442221
   0.65822762  0.81204301  0.09442221
   0.26230934  0.98731035  0.36194977
   0.76230931  0.98731035  0.36194977
   0.13644178  0.70088023  0.19624776
   0.63644177  0.70088023  0.19624776
   0.25008941  0.99161822  0.24851483
   0.75008941  0.99161822  0.24851483
   0.01483259  0.46163857  0.46213427
   0.51483262  0.46163857  0.46213427
   0.03119352  0.52211934  0.35344893
   0.53119349  0.52211934  0.35344893
   0.16799568  0.16772845  0.50013417
   0.66799569  0.16772845  0.50013417
   0.16799568  0.66772848  0.00013423
   0.66799569  0.66772848  0.00013423
   0.41799569  0.83227152  0.49986580
   0.91799569  0.83227152  0.49986580
   0.41799569  0.33227155  0.99986577
   0.91799569  0.33227155  0.99986577
   0.14095286  0.24153830  0.34485105
   0.64095283  0.24153830  0.34485105
   0.14095286  0.74153829  0.84485108
   0.64095283  0.74153829  0.84485108
   0.39095286  0.75846171  0.65514892
   0.89095283  0.75846171  0.65514892
   0.39095286  0.25846171  0.15514894
   0.89095283  0.25846171  0.15514894
BiTiFeO                                 
           1
    10.931315    0.000000    0.000000
     0.000000    5.459620   -0.000912
     0.000000   -0.022664   41.789298
   Bi   Ti   O    Fe
  40  24 120   8
Direct configuration=     2
   0.12516676  0.24102819  0.10746893
   0.62516674  0.24102819  0.10746893
   0.10809658  0.26980943  0.21953174
   0.60809658  0.26980943  0.21953174
   0.12516676  0.74102818  0.60746896
   0.62516674  0.74102818  0.60746896
   0.10809658  0.76980943  0.71953168
   0.60809658  0.76980943  0.71953168
   0.37516674  0.75897182  0.89253104
   0.87516674  0.75897182  0.89253104
   0.35809655  0.73019057  0.78046832
   0.85809658  0.73019057  0.78046832
   0.37516674  0.25897182  0.39253110
   0.87516674  0.25897182  0.39253110
   0.35809655  0.23019056  0.28046826
   0.85809658  0.23019056  0.28046826
   0.37747216  0.76508711  0.10802325
   0.87747213  0.76508711  0.10802325
   0.37147408  0.72244177  0.21982675
   0.87147411  0.72244177  0.21982675
   0.37747216  0.26508717  0.60802326
   0.87747213  0.26508717  0.60802326
   0.37147408  0.22244179  0.71982681
   0.87147411  0.22244179  0.71982681
   0.12747217  0.23491284  0.89197674
   0.62747219  0.23491284  0.89197674
   0.12147409  0.27755823  0.78017319
   0.62147411  0.27755823  0.78017319
   0.12747217  0.73491289  0.39197677
   0.62747219  0.73491289  0.39197677
   0.12147409  0.77755823  0.28017325
   0.62147411  0.77755823  0.28017325
   0.13182504  0.24212219  0.99995174
   0.63182505  0.24212219  0.99995174
   0.13182504  0.74212218  0.49995177
   0.63182505  0.74212218  0.49995177
   0.38182502  0.75787782  0.00004826
   0.88182505  0.75787782  0.00004826
   0.38182502  0.25787782  0.50004820
   0.88182505  0.25787782  0.50004820
   0.39155180  0.75504398  0.34643464
   0.89155180  0.75504398  0.34643464
   0.39155180  0.25504401  0.84643467
   0.89155180  0.25504401  0.84643467
   0.40394321  0.75450973  0.45062260
   0.90394318  0.75450973  0.45062260
   0.40394321  0.25450976  0.95062260
   0.90394318  0.25450976  0.95062260
   0.15394321  0.24549025  0.54937740
   0.65394318  0.24549025  0.54937740
   0.14155180  0.24495600  0.65356533
   0.64155180  0.24495600  0.65356533
   0.14155180  0.74495602  0.15356536
   0.64155180  0.74495602  0.15356536
   0.15394321  0.74549027  0.04937741
   0.65394318  0.74549027  0.04937741
   0.15358822  0.24447699  0.45091076
   0.65358824  0.24447699  0.45091076
   0.15358822  0.74447700  0.95091073
   0.65358824  0.74447700  0.95091073
   0.40358824  0.75552300  0.54908927
   0.90358824  0.75552300  0.54908927
   0.40358824  0.25552300  0.04908925
   0.90358824  0.25552300  0.04908925
   0.31287204  0.56213373  0.05276443
   0.81287204  0.56213373  0.05276443
   0.15980060  0.31509501  0.40648221
   0.65980060  0.31509501  0.40648221
   0.26217219  0.48639227  0.13892383
   0.76217219  0.48639227  0.13892383
   0.15340832  0.19019663  0.30207595
   0.65340832  0.19019663  0.30207595
   0.24918208  0.49782024  0.25059824
   0.74918207  0.49782024  0.25059824
   0.01555363  0.96255730  0.03761612
   0.51555365  0.96255730  0.03761612
   0.02904303  0.02251485  0.14558759
   0.52904301  0.02251485  0.14558759
   0.31287204  0.06213375  0.55276443
   0.81287204  0.06213375  0.55276443
   0.15980060  0.81509501  0.90648218
   0.65980060  0.81509501  0.90648218
   0.26217219  0.98639230  0.63892381
   0.76217219  0.98639230  0.63892381
   0.15340832  0.69019662  0.80207592
   0.65340832  0.69019662  0.80207592
   0.24918208  0.99782030  0.75059827
   0.74918207  0.99782030  0.75059827
   0.01555363  0.46255736  0.53761610
   0.51555365  0.46255736  0.53761610
   0.02904303  0.52251489  0.64558764
   0.52904301  0.52251489  0.64558764
   0.06287207  0.43786621  0.94723557
   0.56287204  0.43786621  0.94723557
   0.40980060  0.68490499  0.59351782
   0.90980060  0.68490499  0.59351782
   0.01217219  0.51360770  0.86107619
   0.51217219  0.51360770  0.86107619
   0.40340835  0.80980338  0.69792408
   0.90340832  0.80980338  0.69792408
   0.99918207  0.50217970  0.74940173
   0.49918207  0.50217970  0.74940173
   0.26555362  0.03744265  0.96238390
   0.76555365  0.03744265  0.96238390
   0.27904304  0.97748511  0.85441236
   0.77904307  0.97748511  0.85441236
   0.06287207  0.93786627  0.44723557
   0.56287204  0.93786627  0.44723557
   0.40980060  0.18490499  0.09351782
   0.90980060  0.18490499  0.09351782
   0.01217219  0.01360771  0.36107619
   0.51217219  0.01360771  0.36107619
   0.40340835  0.30980341  0.19792405
   0.90340832  0.30980341  0.19792405
   0.99918207  0.00217975  0.24940176
   0.49918207  0.00217975  0.24940176
   0.26555362  0.53744270  0.46238384
   0.76555365  0.53744270  0.46238384
   0.27904304  0.47748517  0.35441239
   0.77904307  0.47748517  0.35441239
   0.06282513  0.43986898  0.05276303
   0.56282511  0.43986898  0.05276303
   0.40823501  0.68795055  0.40558206
   0.90823504  0.68795055  0.40558206
   0.01231675  0.51267402  0.13805080
   0.51231674  0.51267402  0.13805080
   0.38644790  0.79910161  0.30375218
   0.88644790  0.79910161  0.30375218
   0.00007901  0.50836428  0.25148313
   0.50007904  0.50836428  0.25148313
   0.26485060  0.03838539  0.03786329
   0.76485063  0.03838539  0.03786329
   0.28114719  0.97796754  0.14654445
   0.78114716  0.97796754  0.14654445
   0.06282513  0.93986895  0.55276309
   0.56282511  0.93986895  0.55276309
   0.40823501  0.18795056  0.90558206
   0.90823504  0.18795056  0.90558206
   0.01231675  0.01267397  0.63805079
   0.51231674  0.01267397  0.63805079
   0.38644790  0.29910167  0.80375212
   0.88644790  0.29910167  0.80375212
   0.00007901  0.00836429  0.75148316
   0.50007904  0.00836429  0.75148316
   0.26485060  0.53838542  0.53786329
   0.76485063  0.53838542  0.53786329
   0.28114719  0.47796754  0.64654449
   0.78114716  0.47796754  0.64654449
   0.31282514  0.56013105  0.94723691
   0.81282511  0.56013105  0.94723691
   0.15823500  0.31204945  0.59441794
   0.65823498  0.31204945  0.59441794
   0.26231671  0.48732604  0.86194921
   0.76231668  0.48732604  0.86194921
   0.13644792  0.20089836  0.69624788
   0.63644790  0.20089836  0.69624788
   0.25007904  0.49163572  0.74851684
   0.75007904  0.49163572  0.74851684
   0.01485060  0.96161458  0.96213671
   0.51485063  0.96161458  0.96213671
   0.03114718  0.02203245  0.85345551
   0.53114716  0.02203245  0.85345551
   0.31282514  0.06013100  0.44723697
   0.81282511  0.06013100  0.44723697
   0.15823500  0.81204945  0.09441792
   0.65823498  0.81204945  0.09441792
   0.26231671  0.98732598  0.36194919
   0.76231668  0.98732598  0.36194919
   0.13644792  0.70089839  0.19624782
   0.63644790  0.70089839  0.19624782
   0.25007904  0.99163572  0.24851684
   0.75007904  0.99163572  0.24851684
   0.01485060  0.46161464  0.46213674
   0.51485063  0.46161464  0.46213674
   0.03114718  0.52203246  0.35345557
   0.53114716  0.52203246  0.35345557
   0.16800669  0.16771445  0.50013379
   0.66800671  0.16771445  0.50013379
   0.16800669  0.66771448  0.00013385
   0.66800671  0.66771448  0.00013385
   0.41800671  0.83228552  0.49986618
   0.91800671  0.83228552  0.49986618
   0.41800671  0.33228555  0.99986615
   0.91800671  0.33228555  0.99986615
   0.14094186  0.24153042  0.34485121
   0.64094183  0.24153042  0.34485121
   0.14094186  0.74153041  0.84485124
   0.64094183  0.74153041  0.84485124
   0.39094186  0.75846959  0.65514876
   0.89094183  0.75846959  0.65514876
   0.39094186  0.25846959  0.15514878
   0.89094183  0.25846959  0.15514878
BiTiFeO                                 
           1
    10.930972    0.000000    0.000000
     0.000000    5.459348   -0.001008
     0.000000   -0.023394   41.814431
   Bi   Ti   O    Fe
  40  24 120   8
Direct configuration=     3
   0.12510358  0.24096847  0.10749881
   0.62510355  0.24096847  0.10749881
   0.10809767  0.26980172  0.21956874
   0.60809767  0.26980172  0.21956874
   0.12510358  0.74096845  0.60749884
   0.62510355  0.74096845  0.60749884
   0.10809767  0.76980172  0.71956868
   0.60809767  0.76980172  0.71956868
   0.37510355  0.75903155  0.89250116
   0.87510355  0.75903155  0.89250116
   0.35809764  0.73019828  0.78043132
   0.85809767  0.73019828  0.78043132
   0.37510355  0.25903155  0.39250122
   0.87510355  0.25903155  0.39250122
   0.35809764  0.23019826  0.28043126
   0.85809767  0.23019826  0.28043126
   0.37741888  0.76513398  0.10805536
   0.87741885  0.76513398  0.10805536
   0.37145591  0.72242659  0.21986920
   0.87145594  0.72242659  0.21986920
   0.37741888  0.26513404  0.60805538
   0.87741885  0.26513404  0.60805538
   0.37145591  0.22242661  0.71986925
   0.87145594  0.22242661  0.71986925
   0.12741889  0.23486597  0.89194462
   0.62741891  0.23486597  0.89194462
   0.12145593  0.27757341  0.78013075
   0.62145594  0.27757341  0.78013075
   0.12741889  0.73486602  0.39194465
   0.62741891  0.73486602  0.39194465
   0.12145593  0.77757341  0.28013080
   0.62145594  0.77757341  0.28013080
   0.13181579  0.24209609  0.99995262
   0.63181580  0.24209609  0.99995262
   0.13181579  0.74209607  0.49995265
   0.63181580  0.74209607  0.49995265
   0.38181577  0.75790393  0.00004738
   0.88181580  0.75790393  0.00004738
   0.38181577  0.25790393  0.50004732
   0.88181580  0.25790393  0.50004732
   0.39154222  0.75524699  0.34628011
   0.89154222  0.75524699  0.34628011
   0.39154222  0.25524702  0.84628014
   0.89154222  0.25524702  0.84628014
   0.40399414  0.75442053  0.45057375
   0.90399411  0.75442053  0.45057375
   0.40399414  0.25442056  0.95057375
   0.90399411  0.25442056  0.95057375
   0.15399414  0.24557945  0.54942625
   0.65399411  0.24557945  0.54942625
   0.14154222  0.24475300  0.65371986
   0.64154222  0.24475300  0.65371986
   0.14154222  0.74475301  0.15371989
   0.64154222  0.74475301  0.15371989
   0.15399414  0.74557947  0.04942626
   0.65399411  0.74557947  0.04942626
   0.15365572  0.24458699  0.45085571
   0.65365574  0.24458699  0.45085571
   0.15365572  0.74458700  0.95085568
   0.65365574  0.74458700  0.95085568
   0.40365574  0.75541300  0.54914432
   0.90365574  0.75541300  0.54914432
   0.40365574  0.25541300  0.04914430
   0.90365574  0.25541300  0.04914430
   0.31288494  0.56219868  0.05274617
   0.81288494  0.56219868  0.05274617
   0.15981711  0.31502101  0.40656806
   0.65981711  0.31502101  0.40656806
   0.26217077  0.48638053  0.13891502
   0.76217077  0.48638053  0.13891502
   0.15338336  0.19032105  0.30217237
   0.65338336  0.19032105  0.30217237
   0.24918201  0.49780620  0.25058845
   0.74918199  0.49780620  0.25058845
   0.01554540  0.96250160  0.03760580
   0.51554541  0.96250160  0.03760580
   0.02902408  0.02258826  0.14554373
   0.52902406  0.02258826  0.14554373
   0.31288494  0.06219870  0.55274617
   0.81288494  0.06219870  0.55274617
   0.15981711  0.81502101  0.90656803
   0.65981711  0.81502101  0.90656803
   0.26217077  0.98638056  0.63891500
   0.76217077  0.98638056  0.63891500
   0.15338336  0.69032103  0.80217234
   0.65338336  0.69032103  0.80217234
   0.24918201  0.99780626  0.75058848
   0.74918199  0.99780626  0.75058848
   0.01554540  0.46250166  0.53760577
   0.51554541  0.46250166  0.53760577
   0.02902408  0.52258831  0.64554378
   0.52902406  0.52258831  0.64554378
   0.06288496  0.43780127  0.94725383
   0.56288494  0.43780127  0.94725383
   0.40981711  0.68497899  0.59343197
   0.90981711  0.68497899  0.59343197
   0.01217077  0.51361944  0.86108500
   0.51217077  0.51361944  0.86108500
   0.40338339  0.80967897  0.69782766
   0.90338336  0.80967897  0.69782766
   0.99918199  0.50219374  0.74941152
   0.49918199  0.50219374  0.74941152
   0.26554538  0.03749835  0.96239423
   0.76554541  0.03749835  0.96239423
   0.27902409  0.97741169  0.85445622
   0.77902412  0.97741169  0.85445622
   0.06288496  0.93780132  0.44725383
   0.56288494  0.93780132  0.44725383
   0.40981711  0.18497899  0.09343197
   0.90981711  0.18497899  0.09343197
   0.01217077  0.01361945  0.36108500
   0.51217077  0.01361945  0.36108500
   0.40338339  0.30967900  0.19782763
   0.90338336  0.30967900  0.19782763
   0.99918199  0.00219380  0.24941155
   0.49918199  0.00219380  0.24941155
   0.26554538  0.53749840  0.46239417
   0.76554541  0.53749840  0.46239417
   0.27902409  0.47741175  0.35445625
   0.77902412  0.47741175  0.35445625
   0.06284357  0.43982169  0.05274563
   0.56284355  0.43982169  0.05274563
   0.40825156  0.68800300  0.40565781
   0.90825159  0.68800300  0.40565781
   0.01229361  0.51265389  0.13804461
   0.51229360  0.51265389  0.13804461
   0.38647508  0.79896121  0.30388824
   0.88647508  0.79896121  0.30388824
   0.00005466  0.50832668  0.25145828
   0.50005469  0.50832668  0.25145828
   0.26484020  0.03844593  0.03785259
   0.76484023  0.03844593  0.03785259
   0.28114389  0.97796125  0.14650352
   0.78114386  0.97796125  0.14650352
   0.06284357  0.93982166  0.55274568
   0.56284355  0.93982166  0.55274568
   0.40825156  0.18800302  0.90565781
   0.90825159  0.18800302  0.90565781
   0.01229361  0.01265383  0.63804460
   0.51229360  0.01265383  0.63804460
   0.38647508  0.29896127  0.80388818
   0.88647508  0.29896127  0.80388818
   0.00005466  0.00832668  0.75145831
   0.50005469  0.00832668  0.75145831
   0.26484020  0.53844595  0.53785259
   0.76484023  0.53844595  0.53785259
   0.28114389  0.47796125  0.64650356
   0.78114386  0.47796125  0.64650356
   0.31284358  0.56017834  0.94725432
   0.81284355  0.56017834  0.94725432
   0.15825155  0.31199700  0.59434219
   0.65825153  0.31199700  0.59434219
   0.26229357  0.48734617  0.86195540
   0.76229354  0.48734617  0.86195540
   0.13647510  0.20103876  0.69611182
   0.63647508  0.20103876  0.69611182
   0.25005469  0.49167332  0.74854169
   0.75005469  0.49167332  0.74854169
   0.01484021  0.96155405  0.96214741
   0.51484023  0.96155405  0.96214741
   0.03114388  0.02203874  0.85349644
   0.53114386  0.02203874  0.85349644
   0.31284358  0.06017828  0.44725438
   0.81284355  0.06017828  0.44725438
   0.15825155  0.81199700  0.09434217
   0.65825153  0.81199700  0.09434217
   0.26229357  0.98734611  0.36195537
   0.76229354  0.98734611  0.36195537
   0.13647510  0.70103879  0.19611176
   0.63647508  0.70103879  0.19611176
   0.25005469  0.99167332  0.24854169
   0.75005469  0.99167332  0.24854169
   0.01484021  0.46155411  0.46214744
   0.51484023  0.46155411  0.46214744
   0.03114388  0.52203875  0.35349650
   0.53114386  0.52203875  0.35349650
   0.16802062  0.16770758  0.50013230
   0.66802063  0.16770758  0.50013230
   0.16802062  0.66770761  0.00013236
   0.66802063  0.66770761  0.00013236
   0.41802063  0.83229239  0.49986767
   0.91802063  0.83229239  0.49986767
   0.41802063  0.33229242  0.99986764
   0.91802063  0.33229242  0.99986764
   0.14098512  0.24132721  0.34474307
   0.64098509  0.24132721  0.34474307
   0.14098512  0.74132719  0.84474310
   0.64098509  0.74132719  0.84474310
   0.39098512  0.75867281  0.65525690
   0.89098509  0.75867281  0.65525690
   0.39098512  0.25867281  0.15525692
   0.89098509  0.25867281  0.15525692
BiTiFeO                                 
           1
    10.933364    0.000000    0.000000
     0.000000    5.459823   -0.000959
     0.000000   -0.023001   41.880825
   Bi   Ti   O    Fe
  40  24 120   8
Direct configuration=     4
   0.12510028  0.24095302  0.10749251
   0.62510025  0.24095302  0.10749251
   0.10810554  0.26976685  0.21956714
   0.60810554  0.26976685  0.21956714
   0.12510028  0.74095301  0.60749254
   0.62510025  0.74095301  0.60749254
   0.10810554  0.76976685  0.71956708
   0.60810554  0.76976685  0.71956708
   0.37510025  0.75904699  0.89250746
   0.87510025  0.75904699  0.89250746
   0.35810551  0.73023315  0.78043292
   0.85810554  0.73023315  0.78043292
   0.37510025  0.25904699  0.39250752
   0.87510025  0.25904699  0.39250752
   0.35810551  0.23023313  0.28043286
   0.85810554  0.23023313  0.28043286
   0.37740777  0.76513718  0.10805025
   0.87740774  0.76513718  0.10805025
   0.37145578  0.72244205  0.21986763
   0.87145581  0.72244205  0.21986763
   0.37740777  0.26513724  0.60805026
   0.87740774  0.26513724  0.60805026
   0.37145578  0.22244207  0.71986769
   0.87145581  0.22244207  0.71986769
   0.12740779  0.23486277  0.89194974
   0.62740780  0.23486277  0.89194974
   0.12145580  0.27755795  0.78013231
   0.62145581  0.27755795  0.78013231
   0.12740779  0.73486282  0.39194977
   0.62740780  0.73486282  0.39194977
   0.12145580  0.77755795  0.28013237
   0.62145581  0.77755795  0.28013237
   0.13181515  0.24210342  0.99995282
   0.63181516  0.24210342  0.99995282
   0.13181515  0.74210341  0.49995285
   0.63181516  0.74210341  0.49995285
   0.38181513  0.75789659  0.00004718
   0.88181516  0.75789659  0.00004718
   0.38181513  0.25789659  0.50004712
   0.88181516  0.25789659  0.50004712
   0.39154668  0.75523428  0.34631252
   0.89154668  0.75523428  0.34631252
   0.39154668  0.25523431  0.84631255
   0.89154668  0.25523431  0.84631255
   0.40401023  0.75440229  0.45058294
   0.90401020  0.75440229  0.45058294
   0.40401023  0.25440232  0.95058294
   0.90401020  0.25440232  0.95058294
   0.15401023  0.24559770  0.54941706
   0.65401020  0.24559770  0.54941706
   0.14154668  0.24476571  0.65368745
   0.64154668  0.24476571  0.65368745
   0.14154668  0.74476572  0.15368748
   0.64154668  0.74476572  0.15368748
   0.15401023  0.74559771  0.04941706
   0.65401020  0.74559771  0.04941706
   0.15367177  0.24459730  0.45086860
   0.65367178  0.24459730  0.45086860
   0.15367177  0.74459732  0.95086857
   0.65367178  0.74459732  0.95086857
   0.40367178  0.75540268  0.54913143
   0.90367178  0.75540268  0.54913143
   0.40367178  0.25540268  0.04913141
   0.90367178  0.25540268  0.04913141
   0.31289870  0.56223245  0.05274589
   0.81289870  0.56223245  0.05274589
   0.15982265  0.31503443  0.40656909
   0.65982265  0.31503443  0.40656909
   0.26217050  0.48637197  0.13892164
   0.76217050  0.48637197  0.13892164
   0.15338646  0.19031398  0.30216141
   0.65338646  0.19031398  0.30216141
   0.24917325  0.49780793  0.25058594
   0.74917323  0.49780793  0.25058594
   0.01554024  0.96247996  0.03760624
   0.51554026  0.96247996  0.03760624
   0.02900711  0.02258179  0.14553927
   0.52900710  0.02258179  0.14553927
   0.31289870  0.06223247  0.55274589
   0.81289870  0.06223247  0.55274589
   0.15982265  0.81503443  0.90656906
   0.65982265  0.81503443  0.90656906
   0.26217050  0.98637200  0.63892162
   0.76217050  0.98637200  0.63892162
   0.15338646  0.69031396  0.80216138
   0.65338646  0.69031396  0.80216138
   0.24917325  0.99780799  0.75058597
   0.74917323  0.99780799  0.75058597
   0.01554024  0.46248002  0.53760621
   0.51554026  0.46248002  0.53760621
   0.02900711  0.52258184  0.64553932
   0.52900710  0.52258184  0.64553932
   0.06289873  0.43776749  0.94725411
   0.56289870  0.43776749  0.94725411
   0.40982265  0.68496557  0.59343094
   0.90982265  0.68496557  0.59343094
   0.01217049  0.51362800  0.86107838
   0.51217050  0.51362800  0.86107838
   0.40338649  0.80968604  0.69783862
   0.90338646  0.80968604  0.69783862
   0.99917323  0.50219201  0.74941403
   0.49917323  0.50219201  0.74941403
   0.26554023  0.03751999  0.96239379
   0.76554026  0.03751999  0.96239379
   0.27900713  0.97741816  0.85446068
   0.77900716  0.97741816  0.85446068
   0.06289873  0.93776755  0.44725411
   0.56289870  0.93776755  0.44725411
   0.40982265  0.18496557  0.09343094
   0.90982265  0.18496557  0.09343094
   0.01217049  0.01362801  0.36107838
   0.51217050  0.01362801  0.36107838
   0.40338649  0.30968607  0.19783859
   0.90338646  0.30968607  0.19783859
   0.99917323  0.00219206  0.24941406
   0.49917323  0.00219206  0.24941406
   0.26554023  0.53752004  0.46239373
   0.76554026  0.53752004  0.46239373
   0.27900713  0.47741822  0.35446071
   0.77900716  0.47741822  0.35446071
   0.06285665  0.43978766  0.05274557
   0.56285663  0.43978766  0.05274557
   0.40825684  0.68798793  0.40566100
   0.90825687  0.68798793  0.40566100
   0.01228485  0.51265434  0.13805231
   0.51228484  0.51265434  0.13805231
   0.38647345  0.79898269  0.30385684
   0.88647345  0.79898269  0.30385684
   0.00004210  0.50832013  0.25145269
   0.50004213  0.50832013  0.25145269
   0.26483566  0.03847131  0.03785289
   0.76483569  0.03847131  0.03785289
   0.28113284  0.97799337  0.14650008
   0.78113281  0.97799337  0.14650008
   0.06285665  0.93978763  0.55274562
   0.56285663  0.93978763  0.55274562
   0.40825684  0.18798794  0.90566100
   0.90825687  0.18798794  0.90566100
   0.01228485  0.01265429  0.63805230
   0.51228484  0.01265429  0.63805230
   0.38647345  0.29898275  0.80385678
   0.88647345  0.29898275  0.80385678
   0.00004210  0.00832013  0.75145272
   0.50004213  0.00832013  0.75145272
   0.26483566  0.53847133  0.53785290
   0.76483569  0.53847133  0.53785290
   0.28113284  0.47799337  0.64650012
   0.78113281  0.47799337  0.64650012
   0.31285666  0.56021237  0.94725438
   0.81285663  0.56021237  0.94725438
   0.15825682  0.31201207  0.59433900
   0.65825681  0.31201207  0.59433900
   0.26228481  0.48734572  0.86194770
   0.76228478  0.48734572  0.86194770
   0.13647346  0.20101728  0.69614322
   0.63647345  0.20101728  0.69614322
   0.25004213  0.49167987  0.74854728
   0.75004213  0.49167987  0.74854728
   0.01483566  0.96152867  0.96214710
   0.51483569  0.96152867  0.96214710
   0.03113283  0.02200661  0.85349988
   0.53113281  0.02200661  0.85349988
   0.31285666  0.06021232  0.44725444
   0.81285663  0.06021232  0.44725444
   0.15825682  0.81201207  0.09433899
   0.65825681  0.81201207  0.09433899
   0.26228481  0.98734566  0.36194768
   0.76228478  0.98734566  0.36194768
   0.13647346  0.70101731  0.19614316
   0.63647345  0.70101731  0.19614316
   0.25004213  0.99167987  0.24854728
   0.75004213  0.99167987  0.24854728
   0.01483566  0.46152873  0.46214713
   0.51483569  0.46152873  0.46214713
   0.03113283  0.52200663  0.35349994
   0.53113281  0.52200663  0.35349994
   0.16802159  0.16771316  0.50013163
   0.66802160  0.16771316  0.50013163
   0.16802159  0.66771319  0.00013169
   0.66802160  0.66771319  0.00013169
   0.41802160  0.83228681  0.49986834
   0.91802160  0.83228681  0.49986834
   0.41802160  0.33228684  0.99986831
   0.91802160  0.33228684  0.99986831
   0.14098380  0.24131098  0.34474983
   0.64098377  0.24131098  0.34474983
   0.14098380  0.74131096  0.84474986
   0.64098377  0.74131096  0.84474986