BiTiFeO                                 
           1
    10.999503   -0.000086   -0.006218
    -0.000043    5.489490   -0.000287
    -0.023027    0.037063   40.660787
   Bi   Ti   O    Fe
  40  24 120   8
Direct configuration=     1
   0.12540500  0.24701200  0.10288400
   0.62540501  0.24701200  0.10288400
   0.11819500  0.27398101  0.21917300
   0.61819500  0.27398101  0.21917300
   0.12540500  0.74701202  0.60288399
   0.62540501  0.74701202  0.60288399
   0.11819500  0.77398098  0.71917301
   0.61819500  0.77398098  0.71917301
   0.37540501  0.75298798  0.89711601
   0.87540501  0.75298798  0.89711601
   0.36819500  0.72601902  0.78082699
   0.86819500  0.72601902  0.78082699
   0.37540501  0.25298801  0.39711601
   0.87540501  0.25298801  0.39711601
   0.36819500  0.22601899  0.28082699
   0.86819500  0.22601899  0.28082699
   0.37283501  0.75149101  0.10287400
   0.87283498  0.75149101  0.10287400
   0.36714301  0.72705799  0.21907400
   0.86714298  0.72705799  0.21907400
   0.37283501  0.25149101  0.60287398
   0.87283498  0.25149101  0.60287398
   0.36714301  0.22705799  0.71907401
   0.86714298  0.22705799  0.71907401
   0.12283500  0.24850901  0.89712602
   0.62283498  0.24850901  0.89712602
   0.11714300  0.27294201  0.78092599
   0.61714298  0.27294201  0.78092599
   0.12283500  0.74850899  0.39712599
   0.62283498  0.74850899  0.39712599
   0.11714300  0.77294201  0.28092599
   0.61714298  0.77294201  0.28092599
   0.12377300  0.23978201  0.00014700
   0.62377298  0.23978201  0.00014700
   0.12377300  0.73978198  0.50014699
   0.62377298  0.73978198  0.50014699
   0.37377301  0.76021802  0.99985301
   0.87377298  0.76021802  0.99985301
   0.37377301  0.26021799  0.49985298
   0.87377298  0.26021799  0.49985298
   0.14763600  0.25081900  0.34803700
   0.64763600  0.25081900  0.34803700
   0.14763600  0.75081903  0.84803700
   0.64763600  0.75081903  0.84803700
   0.39703199  0.74994498  0.34845200
   0.89703202  0.74994498  0.34845200
   0.39703199  0.24994500  0.84845197
   0.89703202  0.24994500  0.84845197
   0.39763600  0.74918097  0.65196300
   0.89763600  0.74918097  0.65196300
   0.39763600  0.24918100  0.15196300
   0.89763600  0.24918100  0.15196300
   0.14703199  0.25005498  0.65154803
   0.64703202  0.25005498  0.65154803
   0.14703199  0.75005502  0.15154800
   0.64703202  0.75005502  0.15154800
   0.14618400  0.24574500  0.45122001
   0.64618498  0.24574500  0.45122001
   0.14618400  0.74574500  0.95121998
   0.64618498  0.74574500  0.95121998
   0.39618501  0.75425500  0.54878002
   0.39618501  0.25425500  0.04878000
   0.89444798  0.75291300  0.45061901
   0.89444798  0.25291300  0.95061898
   0.29980001  0.54837298  0.05445400
   0.79979998  0.54837298  0.05445400
   0.16044800  0.32101300  0.40345299
   0.66044802  0.32101300  0.40345299
   0.26315701  0.47216600  0.13687401
   0.76315701  0.47216600  0.13687401
   0.14546900  0.18768901  0.30430800
   0.64546901  0.18768901  0.30430800
   0.25084099  0.49525800  0.25120100
   0.75084102  0.49525800  0.25120100
   0.00810100  0.96618199  0.03841900
   0.50810099  0.96618199  0.03841900
   0.05275800  0.05470400  0.14992800
   0.55275798  0.05470400  0.14992800
   0.29980001  0.04837300  0.55445403
   0.79979998  0.04837300  0.55445403
   0.16044800  0.82101297  0.90345299
   0.66044802  0.82101297  0.90345299
   0.26315701  0.97216600  0.63687402
   0.76315701  0.97216600  0.63687402
   0.14546900  0.68768799  0.80430800
   0.64546901  0.68768799  0.80430800
   0.25084099  0.99525797  0.75120097
   0.75084102  0.99525797  0.75120097
   0.00810100  0.46618199  0.53841901
   0.50810099  0.46618199  0.53841901
   0.05275800  0.55470401  0.64992797
   0.55275798  0.55470401  0.64992797
   0.04980000  0.45162699  0.94554597
   0.54979998  0.45162699  0.94554597
   0.41044802  0.67898703  0.59654701
   0.91044802  0.67898703  0.59654701
   0.01315700  0.52783400  0.86312598
   0.51315701  0.52783400  0.86312598
   0.39546901  0.81231201  0.69569200
   0.89546901  0.81231201  0.69569200
   0.00084100  0.50474203  0.74879903
   0.50084102  0.50474203  0.74879903
   0.25810099  0.03381800  0.96158099
   0.75810099  0.03381800  0.96158099
   0.30275801  0.94529599  0.85007203
   0.80275798  0.94529599  0.85007203
   0.04980000  0.95162702  0.44554600
   0.54979998  0.95162702  0.44554600
   0.41044802  0.17898700  0.09654700
   0.91044802  0.17898700  0.09654700
   0.01315700  0.02783400  0.36312601
   0.51315701  0.02783400  0.36312601
   0.39546901  0.31231201  0.19569200
   0.89546901  0.31231201  0.19569200
   0.00084100  0.00474200  0.24879900
   0.50084102  0.00474200  0.24879900
   0.25810099  0.53381801  0.46158099
   0.75810099  0.53381801  0.46158099
   0.30275801  0.44529599  0.35007200
   0.80275798  0.44529599  0.35007200
   0.05030400  0.44732001  0.05424400
   0.55030400  0.44732001  0.05424400
   0.41297299  0.67787600  0.40299299
   0.91297299  0.67787600  0.40299299
   0.01283000  0.52564299  0.13704200
   0.51283002  0.52564299  0.13704200
   0.39678100  0.81359398  0.30456999
   0.89678103  0.81359398  0.30456999
   0.00084700  0.50478500  0.25114101
   0.50084698  0.50478500  0.25114101
   0.25856200  0.03727600  0.03879400
   0.75856203  0.03727600  0.03879400
   0.30316600  0.94468802  0.15010300
   0.80316597  0.94468802  0.15010300
   0.05030400  0.94731998  0.55424398
   0.55030400  0.94731998  0.55424398
   0.41297299  0.17787600  0.90299302
   0.91297299  0.17787600  0.90299302
   0.01283000  0.02564300  0.63704199
   0.51283002  0.02564300  0.63704199
   0.39678100  0.31359401  0.80457002
   0.89678103  0.31359401  0.80457002
   0.00084700  0.00478500  0.75114101
   0.50084698  0.00478500  0.75114101
   0.25856200  0.53727603  0.53879398
   0.75856203  0.53727603  0.53879398
   0.30316600  0.44468799  0.65010297
   0.80316597  0.44468799  0.65010297
   0.30030400  0.55268002  0.94575602
   0.80030400  0.55268002  0.94575602
   0.16297300  0.32212400  0.59700698
   0.66297299  0.32212400  0.59700698
   0.26282999  0.47435701  0.86295801
   0.76283002  0.47435701  0.86295801
   0.14678100  0.18640600  0.69542998
   0.64678103  0.18640600  0.69542998
   0.25084701  0.49521601  0.74885899
   0.75084698  0.49521601  0.74885899
   0.00856200  0.96272397  0.96120602
   0.50856203  0.96272397  0.96120602
   0.05316600  0.05531200  0.84989703
   0.55316502  0.05531200  0.84989703
   0.30030400  0.05268000  0.44575599
   0.80030400  0.05268000  0.44575599
   0.16297300  0.82212400  0.09700700
   0.66297299  0.82212400  0.09700700
   0.26282999  0.97435701  0.36295801
   0.76283002  0.97435701  0.36295801
   0.14678100  0.68640602  0.19543000
   0.64678103  0.68640602  0.19543000
   0.25084701  0.99521500  0.24885900
   0.75084698  0.99521500  0.24885900
   0.00856200  0.46272400  0.46120599
   0.50856203  0.46272400  0.46120599
   0.05316600  0.55531198  0.34989700
   0.55316502  0.55531198  0.34989700
   0.16131300  0.16511400  0.49987301
   0.66131300  0.16511400  0.49987301
   0.16131300  0.66511500  0.99987298
   0.66131300  0.66511500  0.99987298
   0.41131300  0.83488500  0.50012702
   0.91131300  0.83488500  0.50012702
   0.41131300  0.33488601  0.00012700
   0.91131300  0.33488601  0.00012700
   0.39444801  0.75291300  0.45061901
   0.39444801  0.25291300  0.95061898
   0.14444800  0.24708700  0.54938102
   0.14444800  0.74708700  0.04938100
   0.64444798  0.24708700  0.54938102
   0.64444798  0.74708700  0.04938100
   0.89618498  0.75425500  0.54878002
   0.89618498  0.25425500  0.04878000
BiTiFeO                                 
           1
    11.009487   -0.000069    0.000855
    -0.000035    5.494171   -0.000808
     0.003134    0.033241   40.727081
   Bi   Ti   O    Fe
  40  24 120   8
Direct configuration=     2
   0.12240652  0.24724686  0.10232112
   0.62730284  0.24682815  0.10272512
   0.11784622  0.27466004  0.21874682
   0.61816675  0.27465721  0.21879073
   0.12240652  0.74724688  0.60232111
   0.62730284  0.74682816  0.60272511
   0.11784622  0.77466001  0.71874683
   0.61816675  0.77465718  0.71879074
   0.37563971  0.75303172  0.89714836
   0.87499666  0.75187261  0.89628946
   0.36830759  0.72660133  0.78048020
   0.86824320  0.72686710  0.78038162
   0.37563971  0.25303175  0.39714836
   0.87499666  0.25187264  0.39628946
   0.36830759  0.22660130  0.28048020
   0.86824320  0.22686707  0.28038162
   0.37250710  0.75144667  0.10295283
   0.87338759  0.75231409  0.10202617
   0.36691616  0.72648601  0.21871770
   0.86699104  0.72621877  0.21861192
   0.37250710  0.25144667  0.60295281
   0.87338759  0.25231409  0.60202615
   0.36691616  0.22648601  0.71871771
   0.86699104  0.22621877  0.71861193
   0.12590199  0.24845974  0.89658816
   0.62117798  0.24862873  0.89693815
   0.11739818  0.27229072  0.78051021
   0.61712262  0.27230628  0.78055036
   0.12590199  0.74845973  0.39658813
   0.62117798  0.74862871  0.39693812
   0.11739818  0.77229072  0.28051021
   0.61712262  0.77230628  0.28055036
   0.12350081  0.23946860  0.00219413
   0.62401853  0.23950000  0.00179194
   0.12350081  0.73946857  0.50219412
   0.62401853  0.73949997  0.50179193
   0.37382906  0.76013177  1.00062565
   0.87406389  0.76065117  1.00282569
   0.37382906  0.26013174  0.50062562
   0.87406389  0.26065114  0.50282566
   0.14843937  0.25069040  0.34763397
   0.64687302  0.25072641  0.34763597
   0.14843937  0.75069043  0.84763397
   0.64687302  0.75072644  0.84763597
   0.39713711  0.74987873  0.34813405
   0.89708917  0.75076742  0.34751426
   0.39713711  0.24987874  0.84813402
   0.89708917  0.25076744  0.84751423
   0.39754740  0.74927754  0.65164660
   0.89762915  0.74828725  0.65098648
   0.39754740  0.24927757  0.15164660
   0.89762915  0.24828728  0.15098648
   0.14616395  0.25024879  0.65109063
   0.64787086  0.25020693  0.65109966
   0.14616395  0.75024882  0.15109060
   0.64787086  0.75020696  0.15109963
   0.15035935  0.24792303  0.45187444
   0.64085307  0.24483372  0.45191587
   0.15035935  0.74792303  0.95187441
   0.64085307  0.74483372  0.95191584
   0.39636730  0.75483050  0.54928760
   0.39636730  0.25483050  0.04928757
   0.89541770  0.75326802  0.45216188
   0.89541770  0.25326802  0.95216185
   0.30063641  0.54830846  0.05418229
   0.79936437  0.55250575  0.05408302
   0.15984281  0.32135541  0.40344987
   0.66130463  0.32069111  0.40352888
   0.26388586  0.47266954  0.13702668
   0.76246516  0.47198434  0.13709642
   0.14528662  0.18839090  0.30468799
   0.64544518  0.18839176  0.30468288
   0.25084913  0.49527351  0.25144400
   0.75082957  0.49505608  0.25146547
   0.00895879  0.96371938  0.03756613
   0.50728786  0.96658289  0.03805196
   0.05316639  0.05368816  0.15019092
   0.55243778  0.05488613  0.15003690
   0.30063641  0.04830847  0.55418232
   0.79936437  0.05250576  0.55408305
   0.15984281  0.82135538  0.90344987
   0.66130463  0.82069108  0.90352888
   0.26388586  0.97266954  0.63702669
   0.76246516  0.97198434  0.63709643
   0.14528662  0.68838989  0.80468799
   0.64544518  0.68839075  0.80468288
   0.25084913  0.99527349  0.75144397
   0.75082957  0.99505605  0.75146544
   0.00895879  0.46371938  0.53756614
   0.50728786  0.46658289  0.53805196
   0.05316639  0.55368817  0.65019089
   0.55243778  0.55488614  0.65003687
   0.04740732  0.44936711  0.94522389
   0.55061594  0.45355508  0.94526722
   0.41028093  0.67906929  0.59640471
   0.91134536  0.67776471  0.59698177
   0.01236797  0.52736472  0.86336480
   0.51339067  0.52780844  0.86321592
   0.39557045  0.81293737  0.69600245
   0.89563071  0.81352190  0.69623620
   0.00078381  0.50465710  0.74904376
   0.50077933  0.50467426  0.74900558
   0.25758788  0.03234218  0.96117557
   0.75994840  0.03678973  0.96076947
   0.30252533  0.94501429  0.85016906
   0.80345564  0.94541406  0.85038100
   0.04740732  0.94936714  0.44522392
   0.55061594  0.95355511  0.44526725
   0.41028093  0.17906926  0.09640470
   0.91134536  0.17776468  0.09698176
   0.01236797  0.02736473  0.36336483
   0.51339067  0.02780844  0.36321595
   0.39557045  0.31293737  0.19600245
   0.89563071  0.31352190  0.19623620
   0.00078381  0.00465708  0.24904373
   0.50077933  0.00467423  0.24900555
   0.25758788  0.53234219  0.46117557
   0.75994840  0.53678973  0.46076947
   0.30252533  0.44501429  0.35016903
   0.80345564  0.44541406  0.35038097
   0.05246665  0.44782830  0.05392789
   0.54952520  0.44609731  0.05390143
   0.41321544  0.67793267  0.40296184
   0.91205025  0.67899422  0.40334794
   0.01358770  0.52615037  0.13728367
   0.51251171  0.52566922  0.13712575
   0.39670285  0.81303535  0.30489172
   0.89662908  0.81251827  0.30509705
   0.00087608  0.50491089  0.25141263
   0.50086581  0.50489209  0.25137375
   0.25881224  0.03768179  0.03841350
   0.75679585  0.03565105  0.03786453
   0.30356591  0.94500767  0.15017534
   0.80252859  0.94454932  0.15040774
   0.05246665  0.94782827  0.55392787
   0.54952520  0.94609728  0.55390141
   0.41321544  0.17793267  0.90296187
   0.91205025  0.17899422  0.90334797
   0.01358770  0.02615038  0.63728365
   0.51251171  0.02566923  0.63712574
   0.39670285  0.31303538  0.80489175
   0.89662908  0.31251830  0.80509708
   0.00087608  0.00491089  0.75141263
   0.50086581  0.00489209  0.75137375
   0.25881224  0.53768182  0.53841348
   0.75679585  0.53565108  0.53786451
   0.30356591  0.44500764  0.65017531
   0.80252859  0.44454929  0.65040771
   0.29934427  0.55274522  0.94551742
   0.80141779  0.54820571  0.94534614
   0.16358313  0.32181626  0.59706241
   0.66207749  0.32265559  0.59714926
   0.26228846  0.47384868  0.86311552
   0.76355613  0.47443509  0.86318386
   0.14697286  0.18557207  0.69582340
   0.64678173  0.18557000  0.69581699
   0.25076454  0.49514894  0.74907474
   0.75075593  0.49536276  0.74909686
   0.00710594  0.96623335  0.96048173
   0.50989934  0.96137146  0.96082726
   0.05272284  0.05628005  0.85016986
   0.55342276  0.05523227  0.85003171
   0.29934427  0.05274521  0.44551739
   0.80141779  0.04820569  0.44534611
   0.16358313  0.82181626  0.09706243
   0.66207749  0.82265559  0.09714928
   0.26228846  0.97384868  0.36311552
   0.76355613  0.97443509  0.36318386
   0.14697286  0.68557208  0.19582341
   0.64678173  0.68557002  0.19581700
   0.25076454  0.99514792  0.24907475
   0.75075593  0.99536175  0.24909687
   0.00710594  0.46623338  0.46048170
   0.50989934  0.46137149  0.46082723
   0.05272284  0.55628002  0.35016983
   0.55342276  0.55523225  0.35003168
   0.16120031  0.16572654  0.49898900
   0.66111439  0.16549451  0.49889711
   0.16120031  0.66572753  0.99898897
   0.66111439  0.66549551  0.99889708
   0.41129325  0.83510537  0.49965497
   0.91113526  0.83410071  0.49814087
   0.41129325  0.33510638 -0.00034504
   0.91113526  0.33410173 -0.00185914
   0.39429292  0.75271685  0.45097324
   0.39429292  0.25271685  0.95097321
   0.14206421  0.24579886  0.54981964
   0.14206421  0.74579886  0.04981962
   0.64758958  0.24727858  0.54987032
   0.64758958  0.74727858  0.04987030
   0.89556731  0.75399470  0.54984068
   0.89556731  0.25399470  0.04984066
BiTiFeO                                 
           1
    11.000980    0.000117    0.005391
     0.000057    5.489005   -0.001097
     0.019920    0.031064   40.661578
   Bi   Ti   O    Fe
  40  24 120   8
Direct configuration=     3
   0.12287549  0.24737650  0.10234985
   0.62694072  0.24701867  0.10280791
   0.11759368  0.27470120  0.21883213
   0.61809220  0.27462684  0.21889396
   0.12287549  0.74737652  0.60234984
   0.62694072  0.74701868  0.60280790
   0.11759368  0.77470117  0.71883214
   0.61809220  0.77462681  0.71889398
   0.37552853  0.75323738  0.89709666
   0.87509314  0.75211543  0.89649285
   0.36842432  0.72670215  0.78060107
   0.86834377  0.72712525  0.78051836
   0.37552853  0.25323741  0.39709666
   0.87509314  0.25211546  0.39649285
   0.36842432  0.22670212  0.28060107
   0.86834377  0.22712522  0.28051836
   0.37266346  0.75127143  0.10301552
   0.87337241  0.75216372  0.10208588
   0.36677368  0.72649577  0.21880727
   0.86689240  0.72602268  0.21870416
   0.37266346  0.25127143  0.60301550
   0.87337241  0.25216372  0.60208586
   0.36677368  0.22649577  0.71880729
   0.86689240  0.22602268  0.71870418
   0.12498289  0.24832889  0.89668379
   0.62215616  0.24822448  0.89697599
   0.11760722  0.27217335  0.78063787
   0.61725656  0.27226771  0.78068835
   0.12498289  0.74832887  0.39668376
   0.62215616  0.74822446  0.39697596
   0.11760722  0.77217335  0.28063787
   0.61725656  0.77226771  0.28068835
   0.12331874  0.23958629  0.00196857
   0.62427435  0.23960131  0.00155843
   0.12331874  0.73958626  0.50196855
   0.62427435  0.73960128  0.50155842
   0.37386295  0.75989645  1.00052892
   0.87391335  0.76069191  1.00247531
   0.37386295  0.25989642  0.50052889
   0.87391335  0.26069188  0.50247528
   0.14765473  0.25122045  0.34823098
   0.64757091  0.25112431  0.34825476
   0.14765473  0.75122048  0.84823098
   0.64757091  0.75112434  0.84825476
   0.39722027  0.74954391  0.34850627
   0.89711508  0.74983466  0.34862205
   0.39722027  0.24954392  0.84850624
   0.89711508  0.24983468  0.84862202
   0.39748039  0.74955854  0.65196203
   0.89759741  0.74858884  0.65173437
   0.39748039  0.24955857  0.15196203
   0.89759741  0.24858887  0.15173437
   0.14684123  0.24998959  0.65154977
   0.64733309  0.25002546  0.65156546
   0.14684123  0.74998962  0.15154974
   0.64733309  0.75002549  0.15156543
   0.14791591  0.24721897  0.45130673
   0.64384648  0.24461780  0.45130998
   0.14791591  0.74721897  0.95130670
   0.64384648  0.74461780  0.95130995
   0.39612555  0.75424494  0.54898758
   0.39612555  0.25424494  0.04898756
   0.89560229  0.75358097  0.45119822
   0.89560229  0.25358097  0.95119819
   0.30036252  0.54895679  0.05418127
   0.79997105  0.55226254  0.05408246
   0.16020996  0.32112382  0.40353616
   0.66093209  0.32070677  0.40363549
   0.26365093  0.47285998  0.13693840
   0.76268794  0.47173814  0.13699680
   0.14524669  0.18775887  0.30420965
   0.64533563  0.18772377  0.30418784
   0.25082037  0.49544621  0.25135181
   0.75080495  0.49533194  0.25136623
   0.00885393  0.96469306  0.03777586
   0.50767745  0.96613437  0.03817398
   0.05286449  0.05416770  0.15015468
   0.55272765  0.05471091  0.14993968
   0.30036252  0.04895681  0.55418130
   0.79997105  0.05226255  0.55408249
   0.16020996  0.82112379  0.90353616
   0.66093209  0.82070674  0.90363549
   0.26365093  0.97285998  0.63693841
   0.76268794  0.97173814  0.63699682
   0.14524669  0.68775786  0.80420965
   0.64533563  0.68772276  0.80418784
   0.25082037  0.99544618  0.75135178
   0.75080495  0.99533191  0.75136620
   0.00885393  0.46469306  0.53777586
   0.50767745  0.46613437  0.53817399
   0.05286449  0.55416771  0.65015465
   0.55272765  0.55471092  0.64993965
   0.04877715  0.45157034  0.94524965
   0.54955853  0.45215272  0.94530300
   0.41042215  0.67904381  0.59651244
   0.91134762  0.67766519  0.59704294
   0.01292516  0.52761266  0.86320899
   0.51301891  0.52771051  0.86314163
   0.39562353  0.81257157  0.69574690
   0.89575012  0.81281007  0.69563333
   0.00078763  0.50480442  0.74893083
   0.50075051  0.50490003  0.74888648
   0.25811373  0.03343061  0.96131183
   0.75874678  0.03559657  0.96094621
   0.30276259  0.94529066  0.85013582
   0.80305821  0.94520722  0.85021654
   0.04877715  0.95157037  0.44524968
   0.54955853  0.95215275  0.44530303
   0.41042215  0.17904378  0.09651243
   0.91134762  0.17766516  0.09704293
   0.01292516  0.02761266  0.36320902
   0.51301891  0.02771051  0.36314166
   0.39562353  0.31257157  0.19574690
   0.89575012  0.31281007  0.19563333
   0.00078763  0.00480440  0.24893080
   0.50075051  0.00490000  0.24888645
   0.25811373  0.53343062  0.46131183
   0.75874678  0.53559658  0.46094621
   0.30276259  0.44529066  0.35013579
   0.80305821  0.44520722  0.35021651
   0.05182354  0.44650529  0.05390732
   0.55013089  0.44682502  0.05392877
   0.41294763  0.67800192  0.40307101
   0.91214590  0.67901836  0.40342107
   0.01314391  0.52581968  0.13716325
   0.51277312  0.52583906  0.13704783
   0.39664508  0.81350205  0.30453735
   0.89652981  0.81370313  0.30418033
   0.00084359  0.50476738  0.25131943
   0.50083401  0.50465710  0.25127240
   0.25885895  0.03711399  0.03856749
   0.75738975  0.03603353  0.03801172
   0.30344239  0.94472367  0.15013297
   0.80280062  0.94480009  0.15030939
   0.05182354  0.94650526  0.55390730
   0.55013089  0.94682499  0.55392875
   0.41294763  0.17800192  0.90307104
   0.91214590  0.17901836  0.90342110
   0.01314391  0.02581969  0.63716323
   0.51277312  0.02583907  0.63704782
   0.39664508  0.31350207  0.80453738
   0.89652981  0.31370316  0.80418036
   0.00084359  0.00476738  0.75131943
   0.50083401  0.00465709  0.75127240
   0.25885895  0.53711402  0.53856747
   0.75738975  0.53603356  0.53801170
   0.30344239  0.44472364  0.65013294
   0.80280062  0.44480006  0.65030936
   0.29990825  0.55171442  0.94554946
   0.80041815  0.54905696  0.94536873
   0.16331614  0.32186977  0.59707761
   0.66227693  0.32265308  0.59718998
   0.26267179  0.47381593  0.86302398
   0.76322076  0.47453569  0.86305869
   0.14698392  0.18603741  0.69548092
   0.64683792  0.18605370  0.69546441
   0.25077229  0.49495653  0.74896288
   0.75070222  0.49507776  0.74897947
   0.00799840  0.96435505  0.96069753
   0.50854829  0.96307416  0.96096864
   0.05307517  0.05569076  0.85009183
   0.55308432  0.05552743  0.84993816
   0.29990825  0.05171440  0.44554943
   0.80041815  0.04905694  0.44536870
   0.16331614  0.82186977  0.09707763
   0.66227693  0.82265308  0.09719000
   0.26267179  0.97381593  0.36302398
   0.76322076  0.97453569  0.36305869
   0.14698392  0.68603742  0.19548094
   0.64683792  0.68605372  0.19546442
   0.25077229  0.99495551  0.24896289
   0.75070222  0.99507675  0.24897948
   0.00799840  0.46435508  0.46069750
   0.50854829  0.46307419  0.46096861
   0.05307517  0.55569074  0.35009180
   0.55308432  0.55552741  0.34993813
   0.16128662  0.16555496  0.49946115
   0.66102119  0.16516551  0.49940084
   0.16128662  0.66555596  0.99946112
   0.66102119  0.66516651  0.99940081
   0.41121816  0.83500929  0.49986619
   0.91132788  0.83468989  0.49910933
   0.41121816  0.33501031 -0.00013383
   0.91132788  0.33469090 -0.00089069
   0.39437030  0.75305091  0.45082526
   0.39437030  0.25305091  0.95082523
   0.14295157  0.24636547  0.54964919
   0.14295157  0.74636547  0.04964917
   0.64645977  0.24758528  0.54964152
   0.64645977  0.74758528  0.04964150
   0.89518904  0.75369478  0.54957629
   0.89518904  0.25369478  0.04957627
BiTiFeO                                 
           1
    11.002754    0.000059    0.002820
     0.000029    5.490178   -0.000915
     0.010394    0.032433   40.703006
   Bi   Ti   O    Fe
  40  24 120   8
Direct configuration=     4
   0.12269387  0.24745665  0.10242945
   0.62673082  0.24709628  0.10298145
   0.11733210  0.27451672  0.21894939
   0.61798625  0.27440823  0.21903114
   0.12269387  0.74745666  0.60242944
   0.62673082  0.74709630  0.60298145
   0.11733210  0.77451669  0.71894941
   0.61798625  0.77440820  0.71903116
   0.37561977  0.75330455  0.89719831
   0.87512566  0.75179536  0.89665617
   0.36843923  0.72653866  0.78064587
   0.86841663  0.72671669  0.78060012
   0.37561977  0.25330458  0.39719831
   0.87512566  0.25179539  0.39665617
   0.36843923  0.22653863  0.28064587
   0.86841663  0.22671666  0.28060012
   0.37269117  0.75117614  0.10314042
   0.87329940  0.75222700  0.10222801
   0.36662502  0.72659780  0.21892884
   0.86676447  0.72611187  0.21884048
   0.37269117  0.25117614  0.60314040
   0.87329940  0.25222700  0.60222799
   0.36662502  0.22659780  0.71892885
   0.86676447  0.22611187  0.71884050
   0.12540001  0.24852800  0.89677893
   0.62212191  0.24810867  0.89712265
   0.11756985  0.27249069  0.78070183
   0.61739452  0.27261739  0.78074712
   0.12540001  0.74852799  0.39677890
   0.62212191  0.74810866  0.39712262
   0.11756985  0.77249069  0.28070183
   0.61739452  0.77261739  0.28074712
   0.12316815  0.23991022  0.00213759
   0.62432836  0.23967879  0.00157466
   0.12316815  0.73991019  0.50213757
   0.62432836  0.73967876  0.50157465
   0.37378685  0.75963288  1.00048094
   0.87371180  0.76067616  1.00269988
   0.37378685  0.25963285  0.50048091
   0.87371180  0.26067613  0.50269985
   0.14771256  0.25050850  0.34790627
   0.64728806  0.25051588  0.34791179
   0.14771256  0.75050853  0.84790627
   0.64728806  0.75051591  0.84791179
   0.39725579  0.74987843  0.34831106
   0.89712890  0.75088315  0.34807374
   0.39725579  0.24987845  0.84831103
   0.89712890  0.25088317  0.84807371
   0.39746925  0.74957093  0.65192552
   0.89764141  0.74818523  0.65181383
   0.39746925  0.24957096  0.15192552
   0.89764141  0.24818526  0.15181383
   0.14697255  0.25026998  0.65156239
   0.64735148  0.25025504  0.65157078
   0.14697255  0.75027001  0.15156236
   0.64735148  0.75025507  0.15157075
   0.14733416  0.24742049  0.45133029
   0.64460508  0.24478581  0.45132963
   0.14733416  0.74742049  0.95133026
   0.64460508  0.74478581  0.95132960
   0.39607262  0.75424398  0.54890935
   0.39607262  0.25424398  0.04890933
   0.89581567  0.75345027  0.45120066
   0.89581567  0.25345027  0.95120063
   0.30033570  0.54933352  0.05410784
   0.80068992  0.55299047  0.05392915
   0.16031690  0.32120192  0.40342290
   0.66086874  0.32068210  0.40353907
   0.26360233  0.47297097  0.13689318
   0.76274246  0.47162013  0.13693052
   0.14522091  0.18830890  0.30453054
   0.64530796  0.18825401  0.30452824
   0.25080201  0.49550006  0.25122790
   0.75072191  0.49554853  0.25121234
   0.00872711  0.96524449  0.03787678
   0.50796015  0.96592762  0.03823893
   0.05285401  0.05421764  0.15018111
   0.55283216  0.05493599  0.14987021
   0.30033570  0.04933354  0.55410787
   0.80068992  0.05299048  0.55392918
   0.16031690  0.82120189  0.90342290
   0.66086874  0.82068207  0.90353907
   0.26360233  0.97297097  0.63689319
   0.76274246  0.97162013  0.63693053
   0.14522091  0.68830789  0.80453054
   0.64530796  0.68825299  0.80452824
   0.25080201  0.99550003  0.75122787
   0.75072191  0.99554850  0.75121231
   0.00872711  0.46524449  0.53787679
   0.50796015  0.46592762  0.53823894
   0.05285401  0.55421765  0.65018108
   0.55283216  0.55493600  0.64987018
   0.04923581  0.45271598  0.94510025
   0.54922659  0.45219544  0.94519839
   0.41059233  0.67916790  0.59648208
   0.91151177  0.67736465  0.59702574
   0.01301912  0.52739157  0.86318209
   0.51306441  0.52791167  0.86312900
   0.39568511  0.81260313  0.69573091
   0.89587443  0.81298416  0.69555287
   0.00085743  0.50499206  0.74876865
   0.50075463  0.50503203  0.74875522
   0.25810198  0.03346462  0.96133679
   0.75840305  0.03564950  0.96087648
   0.30261347  0.94526731  0.85016935
   0.80304058  0.94552647  0.85021979
   0.04923581  0.95271601  0.44510028
   0.54922659  0.95219547  0.44519842
   0.41059233  0.17916787  0.09648207
   0.91151177  0.17736462  0.09702573
   0.01301912  0.02739157  0.36318212
   0.51306441  0.02791167  0.36312903
   0.39568511  0.31260313  0.19573091
   0.89587443  0.31298416  0.19555287
   0.00085743  0.00499203  0.24876862
   0.50075463  0.00503201  0.24875519
   0.25810198  0.53346463  0.46133679
   0.75840305  0.53564951  0.46087648
   0.30261347  0.44526731  0.35016932
   0.80304058  0.44552647  0.35021976
   0.05152272  0.44510849  0.05377900
   0.55061185  0.44704496  0.05385373
   0.41286192  0.67791600  0.40303505
   0.91200413  0.67920658  0.40332492
   0.01296491  0.52591928  0.13707818
   0.51290994  0.52583060  0.13700678
   0.39660623  0.81322845  0.30469880
   0.89648047  0.81285316  0.30465233
   0.00082741  0.50464363  0.25116891
   0.50078559  0.50450827  0.25114742
   0.25886442  0.03671253  0.03866765
   0.75785260  0.03614453  0.03802292
   0.30349991  0.94460074  0.15013074
   0.80285627  0.94458556  0.15025658
   0.05152272  0.94510846  0.55377898
   0.55061185  0.94704493  0.55385372
   0.41286192  0.17791600  0.90303508
   0.91200413  0.17920658  0.90332495
   0.01296491  0.02591929  0.63707816
   0.51290994  0.02583061  0.63700677
   0.39660623  0.31322848  0.80469883
   0.89648047  0.31285319  0.80465236
   0.00082741  0.00464363  0.75116891
   0.50078559  0.00450827  0.75114742
   0.25886442  0.53671256  0.53866763
   0.75785260  0.53614456  0.53802290
   0.30349991  0.44460071  0.65013071
   0.80285627  0.44458553  0.65025655
   0.29984405  0.55149761  0.94545560
   0.79978790  0.54876108  0.94519057
   0.16309942  0.32187845  0.59702752
   0.66248697  0.32271461  0.59714726
   0.26264369  0.47383673  0.86301804
   0.76331032  0.47458340  0.86304846
   0.14704295  0.18593765  0.69547603
   0.64686281  0.18595671  0.69546635
   0.25081895  0.49486592  0.74883097
   0.75067273  0.49491172  0.74882173
   0.00824109  0.96378976  0.96069718
   0.50841582  0.96285927  0.96097754
   0.05294325  0.05566997  0.85015980
   0.55313323  0.05512610  0.84993579
   0.29984405  0.05149760  0.44545557
   0.79978790  0.04876107  0.44519054
   0.16309942  0.82187845  0.09702754
   0.66248697  0.82271461  0.09714729
   0.26264369  0.97383673  0.36301804
   0.76331032  0.97458340  0.36304846
   0.14704295  0.68593767  0.19547605
   0.64686281  0.68595673  0.19546637
   0.25081895  0.99486491  0.24883098
   0.75067273  0.99491070  0.24882175
   0.00824109  0.46378979  0.46069715
   0.50841582  0.46285930  0.46097751
   0.05294325  0.55566995  0.35015977
   0.55313323  0.55512608  0.34993576
   0.16129735  0.16562761  0.49961512
   0.66093849  0.16514304  0.49954968
   0.16129735  0.66562861  0.99961509
   0.66093849  0.66514404  0.99954965
   0.41120114  0.83495412  0.50003326
   0.91138995  0.83454130  0.49939213
   0.41120114  0.33495513  0.00003324
   0.91138995  0.33454231 -0.00060789
   0.39438138  0.75290001  0.45087334
   0.39438138  0.25290001  0.95087331
   0.14369579  0.24633569  0.54960915
   0.14369579  0.74633569  0.04960913