BiTiFeO                                 
           1
    10.981276   -0.000932    0.003948
    -0.005378    5.476895   -0.000406
     0.183488    0.021562   41.146999
   Bi   Ti   O    Fe
  40  24 120   8
Direct configuration=     1
   0.12546979  0.24497506  0.10357349
   0.62546980  0.24497506  0.10357349
   0.11712292  0.27640706  0.21986894
   0.61712289  0.27640706  0.21986894
   0.12546979  0.74497503  0.60357350
   0.62546980  0.74497503  0.60357350
   0.11712292  0.77640712  0.71986890
   0.61712289  0.77640712  0.71986890
   0.37380931  0.75147796  0.89384323
   0.87380934  0.75147796  0.89384323
   0.35920221  0.73122597  0.78136998
   0.85920221  0.73122597  0.78136998
   0.37380931  0.25147793  0.39384323
   0.87380934  0.25147793  0.39384323
   0.35920221  0.23122600  0.28136992
   0.85920221  0.23122600  0.28136992
   0.37180564  0.75302064  0.10347800
   0.87180567  0.75302064  0.10347800
   0.37253743  0.73205268  0.21988057
   0.87253743  0.73205268  0.21988057
   0.37180564  0.25302067  0.60347801
   0.87180567  0.25302067  0.60347801
   0.37253743  0.23205268  0.71988058
   0.87253743  0.23205268  0.71988058
   0.12696804  0.24506274  0.89353186
   0.62696803  0.24506274  0.89353186
   0.11701118  0.28261876  0.78105122
   0.61701119  0.28261876  0.78105122
   0.12696804  0.74506277  0.39353186
   0.62696803  0.74506277  0.39353186
   0.11701118  0.78261870  0.28105122
   0.61701119  0.78261870  0.28105122
   0.12725434  0.24381298  0.00159874
   0.62725437  0.24381298  0.00159874
   0.12725434  0.74381298  0.50159872
   0.62725437  0.74381298  0.50159872
   0.37468514  0.75943101  0.00148749
   0.87468517  0.75943101  0.00148749
   0.37468514  0.25943103  0.50148749
   0.87468517  0.25943103  0.50148749
   0.39655599  0.75072885  0.34723699
   0.89655602  0.75072885  0.34723699
   0.39655599  0.25072882  0.84723699
   0.89655602  0.25072882  0.84723699
   0.39629298  0.75026184  0.65232152
   0.89629298  0.75026184  0.65232152
   0.39629298  0.25026184  0.15232156
   0.89629298  0.25026184  0.15232156
   0.39929038  0.75274461  0.45079708
   0.89929038  0.75274461  0.45079708
   0.39929038  0.25274461  0.95079702
   0.89929038  0.25274461  0.95079702
   0.14509642  0.24805434  0.65192294
   0.64509642  0.24805434  0.65192294
   0.14509642  0.74805433  0.15192293
   0.64509642  0.74805433  0.15192293
   0.14835665  0.24606501  0.45127585
   0.64835668  0.24606501  0.45127585
   0.14835665  0.74606502  0.95127589
   0.64835668  0.74606502  0.95127589
   0.39827141  0.75364667  0.54936039
   0.89827144  0.75364667  0.54936039
   0.39827141  0.25364664  0.04936040
   0.89827144  0.25364664  0.04936040
   0.30356926  0.55185622  0.05379678
   0.80356926  0.55185622  0.05379678
   0.16091943  0.31953365  0.40565860
   0.66091943  0.31953365  0.40565860
   0.26151261  0.47191006  0.13703559
   0.76151264  0.47191006  0.13703559
   0.15381652  0.18392825  0.30237338
   0.65381652  0.18392825  0.30237338
   0.25082406  0.49809846  0.25058398
   0.75082409  0.49809846  0.25058398
   0.00911414  0.96484208  0.03881069
   0.50911415  0.96484208  0.03881069
   0.05001804  0.05232533  0.14874211
   0.55001801  0.05232533  0.14874211
   0.30356926  0.05185620  0.55379677
   0.80356926  0.05185620  0.55379677
   0.16091943  0.81953365  0.90565860
   0.66091943  0.81953365  0.90565860
   0.26151261  0.97191006  0.63703555
   0.76151264  0.97191006  0.63703555
   0.15381652  0.68392819  0.80237335
   0.65381652  0.68392819  0.80237335
   0.25082406  0.99809849  0.75058401
   0.75082409  0.99809849  0.75058401
   0.00911414  0.46484211  0.53881067
   0.50911415  0.46484211  0.53881067
   0.05001804  0.55232537  0.64874214
   0.55001801  0.55232537  0.64874214
   0.05380175  0.44632694  0.94670367
   0.55380177  0.44632694  0.94670367
   0.40900949  0.68109733  0.59608442
   0.90900946  0.68109733  0.59608442
   0.01289377  0.52236998  0.86220408
   0.51289380  0.52236998  0.86220408
   0.39520362  0.80803871  0.69535792
   0.89520359  0.80803871  0.69535792
   0.99971831  0.50549108  0.74885720
   0.49971831  0.50549108  0.74885720
   0.26182771  0.03477270  0.96270150
   0.76182771  0.03477270  0.96270150
   0.29504225  0.95616072  0.85171497
   0.79504228  0.95616072  0.85171497
   0.05380175  0.94632697  0.44670367
   0.55380177  0.94632697  0.44670367
   0.40900949  0.18109736  0.09608441
   0.90900946  0.18109736  0.09608441
   0.01289377  0.02236998  0.36220411
   0.51289380  0.02236998  0.36220411
   0.39520362  0.30803874  0.19535795
   0.89520359  0.30803874  0.19535795
   0.99971831  0.00549110  0.24885725
   0.49971831  0.00549110  0.24885725
   0.26182771  0.53477269  0.46270150
   0.76182771  0.53477269  0.46270150
   0.29504225  0.45616078  0.35171500
   0.79504228  0.45616078  0.35171500
   0.05387903  0.44254601  0.05356831
   0.55387902  0.44254601  0.05356831
   0.40827209  0.68323982  0.40476137
   0.90827209  0.68323982  0.40476137
   0.01132874  0.52433479  0.13674661
   0.51132876  0.52433479  0.13674661
   0.39481801  0.80787867  0.30383602
   0.89481801  0.80787867  0.30383602
   0.99997586  0.50818884  0.25085586
   0.49997586  0.50818884  0.25085586
   0.26041818  0.03762233  0.03887423
   0.76041818  0.03762233  0.03887423
   0.30031267  0.94658876  0.14928889
   0.80031264  0.94658876  0.14928889
   0.05387903  0.94254601  0.55356836
   0.55387902  0.94254601  0.55356836
   0.40827209  0.18323982  0.90476137
   0.90827209  0.18323982  0.90476137
   0.01132874  0.02433475  0.63674658
   0.51132876  0.02433475  0.63674658
   0.39481801  0.30787870  0.80383599
   0.89481801  0.30787870  0.80383599
   0.99997586  0.00818887  0.75085586
   0.49997586  0.00818887  0.75085586
   0.26041818  0.53762233  0.53887421
   0.76041818  0.53762233  0.53887421
   0.30031267  0.44658876  0.64928895
   0.80031264  0.44658876  0.64928895
   0.30377465  0.55022484  0.94679081
   0.80377465  0.55022484  0.94679081
   0.16278049  0.31996796  0.59648323
   0.66278052  0.31996796  0.59648323
   0.26326358  0.47685686  0.86249059
   0.76326358  0.47685686  0.86249059
   0.13915291  0.18941991  0.69497818
   0.63915288  0.18941991  0.69497818
   0.25128379  0.49499062  0.74827862
   0.75128376  0.49499062  0.74827862
   0.01039962  0.96351862  0.96217030
   0.51039964  0.96351862  0.96217030
   0.04646111  0.04425483  0.85146087
   0.54646110  0.04425483  0.85146087
   0.30377465  0.05022482  0.44679090
   0.80377465  0.05022482  0.44679090
   0.16278049  0.81996798  0.09648325
   0.66278052  0.81996798  0.09648325
   0.26326358  0.97685683  0.36249053
   0.76326358  0.97685683  0.36249053
   0.13915291  0.68941993  0.19497815
   0.63915288  0.68941993  0.19497815
   0.25128379  0.99499059  0.24827859
   0.75128376  0.99499059  0.24827859
   0.01039962  0.46351868  0.46217030
   0.51039964  0.46351868  0.46217030
   0.04646111  0.54425484  0.35146090
   0.54646110  0.54425484  0.35146090
   0.16351394  0.16678865  0.50032836
   0.66351396  0.16678865  0.50032836
   0.16351394  0.66678870  0.00032842
   0.66351396  0.66678870  0.00032842
   0.41301701  0.83233851  0.50034368
   0.91301704  0.83233851  0.50034368
   0.41301701  0.33233860  0.00034368
   0.91301704  0.33233860  0.00034368
   0.14467576  0.24587761  0.34585920
   0.64467573  0.24587761  0.34585920
   0.14467576  0.74587762  0.84585923
   0.64467573  0.74587762  0.84585923
   0.14567155  0.24702448  0.54966146
   0.64567155  0.24702448  0.54966146
   0.14567155  0.74702448  0.04966143
   0.64567155  0.74702448  0.04966143
BiTiFeO                                 
           1
    10.981880   -0.000943    0.003996
    -0.005384    5.477152   -0.000409
     0.183675    0.021538   41.149760
   Bi   Ti   O    Fe
  40  24 120   8
Direct configuration=     2
   0.12546825  0.24496908  0.10357219
   0.62546826  0.24496908  0.10357219
   0.11709190  0.27642297  0.21986444
   0.61709188  0.27642297  0.21986444
   0.12546825  0.74496905  0.60357220
   0.62546826  0.74496905  0.60357220
   0.11709190  0.77642303  0.71986440
   0.61709188  0.77642303  0.71986440
   0.37380279  0.75150018  0.89384436
   0.87380282  0.75150018  0.89384436
   0.35917799  0.73122718  0.78136532
   0.85917799  0.73122718  0.78136532
   0.37380279  0.25150015  0.39384436
   0.87380282  0.25150015  0.39384436
   0.35917799  0.23122721  0.28136526
   0.85917799  0.23122721  0.28136526
   0.37180295  0.75302743  0.10347641
   0.87180298  0.75302743  0.10347641
   0.37251414  0.73206007  0.21987786
   0.87251414  0.73206007  0.21987786
   0.37180295  0.25302746  0.60347643
   0.87180298  0.25302746  0.60347643
   0.37251414  0.23206007  0.71987788
   0.87251414  0.23206007  0.71987788
   0.12695933  0.24502104  0.89353109
   0.62695931  0.24502104  0.89353109
   0.11698962  0.28262775  0.78104661
   0.61698963  0.28262775  0.78104661
   0.12695933  0.74502106  0.39353109
   0.62695931  0.74502106  0.39353109
   0.11698962  0.78262769  0.28104661
   0.61698963  0.78262769  0.28104661
   0.12727282  0.24379009  0.00159875
   0.62727285  0.24379009  0.00159875
   0.12727282  0.74379009  0.50159873
   0.62727285  0.74379009  0.50159873
   0.37469980  0.75944120  0.00148833
   0.87469983  0.75944120  0.00148833
   0.37469980  0.25944123  0.50148833
   0.87469983  0.25944123  0.50148833
   0.39655179  0.75074742  0.34723055
   0.89655182  0.75074742  0.34723055
   0.39655179  0.25074739  0.84723055
   0.89655182  0.25074739  0.84723055
   0.39628922  0.75025009  0.65231102
   0.89628922  0.75025009  0.65231102
   0.39628922  0.25025009  0.15231106
   0.89628922  0.25025009  0.15231106
   0.39930363  0.75272824  0.45079868
   0.89930363  0.75272824  0.45079868
   0.39930363  0.25272824  0.95079862
   0.89930363  0.25272824  0.95079862
   0.14509127  0.24805704  0.65191523
   0.64509127  0.24805704  0.65191523
   0.14509127  0.74805703  0.15191522
   0.64509127  0.74805703  0.15191522
   0.14837178  0.24607971  0.45127558
   0.64837181  0.24607971  0.45127558
   0.14837178  0.74607973  0.95127561
   0.64837181  0.74607973  0.95127561
   0.39826936  0.75363675  0.54936039
   0.89826939  0.75363675  0.54936039
   0.39826936  0.25363672  0.04936039
   0.89826939  0.25363672  0.04936039
   0.30359965  0.55184980  0.05379911
   0.80359965  0.55184980  0.05379911
   0.16089539  0.31952188  0.40566936
   0.66089539  0.31952188  0.40566936
   0.26154676  0.47190296  0.13703496
   0.76154679  0.47190296  0.13703496
   0.15384648  0.18392218  0.30236885
   0.65384648  0.18392218  0.30236885
   0.25078826  0.49810287  0.25057927
   0.75078829  0.49810287  0.25057927
   0.00913535  0.96483340  0.03881240
   0.50913536  0.96483340  0.03881240
   0.04997951  0.05229771  0.14874021
   0.54997949  0.05229771  0.14874021
   0.30359965  0.05184979  0.55379909
   0.80359965  0.05184979  0.55379909
   0.16089539  0.81952188  0.90566936
   0.66089539  0.81952188  0.90566936
   0.26154676  0.97190296  0.63703492
   0.76154679  0.97190296  0.63703492
   0.15384648  0.68392212  0.80236883
   0.65384648  0.68392212  0.80236883
   0.25078826  0.99810290  0.75057930
   0.75078829  0.99810290  0.75057930
   0.00913535  0.46483343  0.53881238
   0.50913536  0.46483343  0.53881238
   0.04997951  0.55229775  0.64874024
   0.54997949  0.55229775  0.64874024
   0.05381537  0.44629731  0.94670636
   0.55381539  0.44629731  0.94670636
   0.40903726  0.68108296  0.59608584
   0.90903723  0.68108296  0.59608584
   0.01286372  0.52236418  0.86220148
   0.51286375  0.52236418  0.86220148
   0.39522709  0.80807145  0.69536028
   0.89522706  0.80807145  0.69536028
   0.99969660  0.50551375  0.74885342
   0.49969660  0.50551375  0.74885342
   0.26188031  0.03477254  0.96270544
   0.76188031  0.03477254  0.96270544
   0.29498541  0.95624725  0.85171910
   0.79498544  0.95624725  0.85171910
   0.05381537  0.94629734  0.44670636
   0.55381539  0.94629734  0.44670636
   0.40903726  0.18108299  0.09608583
   0.90903723  0.18108299  0.09608583
   0.01286372  0.02236418  0.36220151
   0.51286375  0.02236418  0.36220151
   0.39522709  0.30807148  0.19536031
   0.89522706  0.30807148  0.19536031
   0.99969660  0.00551377  0.24885347
   0.49969660  0.00551377  0.24885347
   0.26188031  0.53477254  0.46270544
   0.76188031  0.53477254  0.46270544
   0.29498541  0.45624731  0.35171913
   0.79498544  0.45624731  0.35171913
   0.05387083  0.44256160  0.05357141
   0.55387083  0.44256160  0.05357141
   0.40829591  0.68323867  0.40476548
   0.90829591  0.68323867  0.40476548
   0.01131004  0.52432812  0.13674404
   0.51131006  0.52432812  0.13674404
   0.39483085  0.80787389  0.30384104
   0.89483085  0.80787389  0.30384104
   0.99995910  0.50819822  0.25085260
   0.49995910  0.50819822  0.25085260
   0.26045241  0.03760868  0.03887569
   0.76045241  0.03760868  0.03887569
   0.30034670  0.94661772  0.14928961
   0.80034667  0.94661772  0.14928961
   0.05387083  0.94256160  0.55357146
   0.55387083  0.94256160  0.55357146
   0.40829591  0.18323867  0.90476548
   0.90829591  0.18323867  0.90476548
   0.01131004  0.02432809  0.63674401
   0.51131006  0.02432809  0.63674401
   0.39483085  0.30787392  0.80384101
   0.89483085  0.30787392  0.80384101
   0.99995910  0.00819825  0.75085260
   0.49995910  0.00819825  0.75085260
   0.26045241  0.53760868  0.53887567
   0.76045241  0.53760868  0.53887567
   0.30034670  0.44661772  0.64928967
   0.80034667  0.44661772  0.64928967
   0.30382559  0.55025513  0.94679314
   0.80382559  0.55025513  0.94679314
   0.16275231  0.31997384  0.59648554
   0.66275234  0.31997384  0.59648554
   0.26330586  0.47686114  0.86248952
   0.76330586  0.47686114  0.86248952
   0.13913585  0.18939679  0.69497994
   0.63913582  0.18939679  0.69497994
   0.25123907  0.49499060  0.74827491
   0.75123904  0.49499060  0.74827491
   0.01040977  0.96349964  0.96217477
   0.51040979  0.96349964  0.96217477
   0.04642030  0.04415893  0.85146370
   0.54642029  0.04415893  0.85146370
   0.30382559  0.05025511  0.44679323
   0.80382559  0.05025511  0.44679323
   0.16275231  0.81997387  0.09648556
   0.66275234  0.81997387  0.09648556
   0.26330586  0.97686111  0.36248946
   0.76330586  0.97686111  0.36248946
   0.13913585  0.68939681  0.19497991
   0.63913582  0.68939681  0.19497991
   0.25123907  0.99499057  0.24827488
   0.75123904  0.99499057  0.24827488
   0.01040977  0.46349970  0.46217477
   0.51040979  0.46349970  0.46217477
   0.04642030  0.54415894  0.35146373
   0.54642029  0.54415894  0.35146373
   0.16350133  0.16677087  0.50033203
   0.66350135  0.16677087  0.50033203
   0.16350133  0.66677091  0.00033209
   0.66350135  0.66677091  0.00033209
   0.41306023  0.83235356  0.50034616
   0.91306026  0.83235356  0.50034616
   0.41306023  0.33235364  0.00034616
   0.91306026  0.33235364  0.00034616
   0.14466966  0.24590903  0.34586870
   0.64466963  0.24590903  0.34586870
   0.14466966  0.74590904  0.84586873
   0.64466963  0.74590904  0.84586873
   0.14566019  0.24703686  0.54965863
   0.64566019  0.24703686  0.54965863
   0.14566019  0.74703686  0.04965861
   0.64566019  0.74703686  0.04965861
BiTiFeO                                 
           1
    10.984908   -0.000870    0.004147
    -0.005349    5.478273   -0.000488
     0.184284    0.020969   41.170868
   Bi   Ti   O    Fe
  40  24 120   8
Direct configuration=     3
   0.12547034  0.24497403  0.10357123
   0.62547035  0.24497403  0.10357123
   0.11709325  0.27641706  0.21986238
   0.61709322  0.27641706  0.21986238
   0.12547034  0.74497400  0.60357124
   0.62547035  0.74497400  0.60357124
   0.11709325  0.77641712  0.71986233
   0.61709322  0.77641712  0.71986233
   0.37380479  0.75150146  0.89384434
   0.87380482  0.75150146  0.89384434
   0.35917883  0.73123476  0.78136568
   0.85917883  0.73123476  0.78136568
   0.37380479  0.25150143  0.39384434
   0.87380482  0.25150143  0.39384434
   0.35917883  0.23123479  0.28136562
   0.85917883  0.23123479  0.28136562
   0.37180747  0.75302233  0.10347557
   0.87180750  0.75302233  0.10347557
   0.37251573  0.73206389  0.21987604
   0.87251573  0.73206389  0.21987604
   0.37180747  0.25302236  0.60347559
   0.87180750  0.25302236  0.60347559
   0.37251573  0.23206389  0.71987606
   0.87251573  0.23206389  0.71987606
   0.12695872  0.24501984  0.89353079
   0.62695870  0.24501984  0.89353079
   0.11698776  0.28261926  0.78104715
   0.61698776  0.28261926  0.78104715
   0.12695872  0.74501987  0.39353079
   0.62695870  0.74501987  0.39353079
   0.11698776  0.78261920  0.28104715
   0.61698776  0.78261920  0.28104715
   0.12727439  0.24378691  0.00159898
   0.62727442  0.24378691  0.00159898
   0.12727439  0.74378691  0.50159895
   0.62727442  0.74378691  0.50159895
   0.37470234  0.75944195  0.00148846
   0.87470237  0.75944195  0.00148846
   0.37470234  0.25944198  0.50148846
   0.87470237  0.25944198  0.50148846
   0.39655346  0.75075242  0.34722807
   0.89655349  0.75075242  0.34722807
   0.39655346  0.25075239  0.84722807
   0.89655349  0.25075239  0.84722807
   0.39628905  0.75026153  0.65231474
   0.89628905  0.75026153  0.65231474
   0.39628905  0.25026153  0.15231478
   0.89628905  0.25026153  0.15231478
   0.39930710  0.75272603  0.45079830
   0.89930710  0.75272603  0.45079830
   0.39930710  0.25272603  0.95079824
   0.89930710  0.25272603  0.95079824
   0.14509022  0.24804870  0.65191879
   0.64509022  0.24804870  0.65191879
   0.14509022  0.74804868  0.15191877
   0.64509022  0.74804868  0.15191877
   0.14837530  0.24608145  0.45127562
   0.64837533  0.24608145  0.45127562
   0.14837530  0.74608146  0.95127565
   0.64837533  0.74608146  0.95127565
   0.39827195  0.75363566  0.54936137
   0.89827198  0.75363566  0.54936137
   0.39827195  0.25363563  0.04936137
   0.89827198  0.25363563  0.04936137
   0.30359751  0.55185833  0.05379901
   0.80359751  0.55185833  0.05379901
   0.16089274  0.31951784  0.40567005
   0.66089274  0.31951784  0.40567005
   0.26154545  0.47190019  0.13703466
   0.76154548  0.47190019  0.13703466
   0.15384614  0.18392867  0.30237024
   0.65384614  0.18392867  0.30237024
   0.25078499  0.49810280  0.25057905
   0.75078502  0.49810280  0.25057905
   0.00913646  0.96482745  0.03881240
   0.50913646  0.96482745  0.03881240
   0.04997906  0.05229867  0.14873942
   0.54997903  0.05229867  0.14873942
   0.30359751  0.05185831  0.55379899
   0.80359751  0.05185831  0.55379899
   0.16089274  0.81951784  0.90567005
   0.66089274  0.81951784  0.90567005
   0.26154545  0.97190019  0.63703461
   0.76154548  0.97190019  0.63703461
   0.15384614  0.68392861  0.80237021
   0.65384614  0.68392861  0.80237021
   0.25078499  0.99810283  0.75057907
   0.75078502  0.99810283  0.75057907
   0.00913646  0.46482748  0.53881238
   0.50913646  0.46482748  0.53881238
   0.04997906  0.55229871  0.64873945
   0.54997903  0.55229871  0.64873945
   0.05381785  0.44629075  0.94670675
   0.55381788  0.44629075  0.94670675
   0.40903794  0.68108504  0.59608559
   0.90903792  0.68108504  0.59608559
   0.01286455  0.52236961  0.86220154
   0.51286458  0.52236961  0.86220154
   0.39522763  0.80806820  0.69535841
   0.89522760  0.80806820  0.69535841
   0.99969377  0.50551341  0.74885376
   0.49969377  0.50551341  0.74885376
   0.26188080  0.03477147  0.96270580
   0.76188080  0.03477147  0.96270580
   0.29497931  0.95624438  0.85172044
   0.79497934  0.95624438  0.85172044
   0.05381785  0.94629078  0.44670675
   0.55381788  0.94629078  0.44670675
   0.40903794  0.18108507  0.09608558
   0.90903792  0.18108507  0.09608558
   0.01286455  0.02236962  0.36220157
   0.51286458  0.02236962  0.36220157
   0.39522763  0.30806823  0.19535844
   0.89522760  0.30806823  0.19535844
   0.99969377  0.00551343  0.24885380
   0.49969377  0.00551343  0.24885380
   0.26188080  0.53477146  0.46270580
   0.76188080  0.53477146  0.46270580
   0.29497931  0.45624444  0.35172047
   0.79497934  0.45624444  0.35172047
   0.05387153  0.44256215  0.05357140
   0.55387153  0.44256215  0.05357140
   0.40829672  0.68324166  0.40476624
   0.90829672  0.68324166  0.40476624
   0.01130916  0.52433446  0.13674354
   0.51130918  0.52433446  0.13674354
   0.39483100  0.80787115  0.30384139
   0.89483100  0.80787115  0.30384139
   0.99995528  0.50820036  0.25085232
   0.49995528  0.50820036  0.25085232
   0.26045030  0.03760478  0.03887580
   0.76045030  0.03760478  0.03887580
   0.30034562  0.94660998  0.14928909
   0.80034559  0.94660998  0.14928909
   0.05387153  0.94256215  0.55357145
   0.55387153  0.94256215  0.55357145
   0.40829672  0.18324166  0.90476624
   0.90829672  0.18324166  0.90476624
   0.01130916  0.02433442  0.63674351
   0.51130918  0.02433442  0.63674351
   0.39483100  0.30787118  0.80384136
   0.89483100  0.30787118  0.80384136
   0.99995528  0.00820039  0.75085232
   0.49995528  0.00820039  0.75085232
   0.26045030  0.53760478  0.53887578
   0.76045030  0.53760478  0.53887578
   0.30034562  0.44660998  0.64928915
   0.80034559  0.44660998  0.64928915
   0.30382793  0.55026313  0.94679359
   0.80382793  0.55026313  0.94679359
   0.16274987  0.31997027  0.59648563
   0.66274990  0.31997027  0.59648563
   0.26330405  0.47686586  0.86248950
   0.76330405  0.47686586  0.86248950
   0.13913423  0.18940228  0.69497790
   0.63913420  0.18940228  0.69497790
   0.25123581  0.49499301  0.74827483
   0.75123578  0.49499301  0.74827483
   0.01040974  0.96349737  0.96217518
   0.51040975  0.96349737  0.96217518
   0.04641929  0.04415149  0.85146462
   0.54641929  0.04415149  0.85146462
   0.30382793  0.05026311  0.44679368
   0.80382793  0.05026311  0.44679368
   0.16274987  0.81997030  0.09648564
   0.66274990  0.81997030  0.09648564
   0.26330405  0.97686583  0.36248944
   0.76330405  0.97686583  0.36248944
   0.13913423  0.68940230  0.19497787
   0.63913420  0.68940230  0.19497787
   0.25123581  0.99499298  0.24827480
   0.75123578  0.99499298  0.24827480
   0.01040974  0.46349743  0.46217518
   0.51040975  0.46349743  0.46217518
   0.04641929  0.54415150  0.35146465
   0.54641929  0.54415150  0.35146465
   0.16349946  0.16677302  0.50033212
   0.66349948  0.16677302  0.50033212
   0.16349946  0.66677306  0.00033218
   0.66349948  0.66677306  0.00033218
   0.41306246  0.83235181  0.50034638
   0.91306249  0.83235181  0.50034638
   0.41306246  0.33235190  0.00034638
   0.91306249  0.33235190  0.00034638
   0.14467104  0.24590356  0.34586653
   0.64467101  0.24590356  0.34586653
   0.14467104  0.74590358  0.84586656
   0.64467101  0.74590358  0.84586656
   0.14566138  0.24703938  0.54965917
   0.64566138  0.24703938  0.54965917
   0.14566138  0.74703938  0.04965914
   0.64566138  0.74703938  0.04965914
BiTiFeO                                 
           1
    10.982873   -0.001034    0.004933
    -0.005430    5.476494   -0.000469
     0.187196    0.021111   41.178542
   Bi   Ti   O    Fe
  40  24 120   8
Direct configuration=     4
   0.12546286  0.24500675  0.10357172
   0.62546287  0.24500675  0.10357172
   0.11709331  0.27635846  0.21986367
   0.61709329  0.27635846  0.21986367
   0.12546286  0.74500672  0.60357172
   0.62546287  0.74500672  0.60357172
   0.11709331  0.77635852  0.71986362
   0.61709329  0.77635852  0.71986362
   0.37379120  0.75152795  0.89383430
   0.87379123  0.75152795  0.89383430
   0.35914601  0.73130422  0.78134373
   0.85914601  0.73130422  0.78134373
   0.37379120  0.25152792  0.39383430
   0.87379123  0.25152792  0.39383430
   0.35914601  0.23130425  0.28134367
   0.85914601  0.23130425  0.28134367
   0.37181495  0.75297570  0.10347795
   0.87181498  0.75297570  0.10347795
   0.37252110  0.73210727  0.21988122
   0.87252110  0.73210727  0.21988122
   0.37181495  0.25297573  0.60347796
   0.87181498  0.25297573  0.60347796
   0.37252110  0.23210727  0.71988123
   0.87252110  0.23210727  0.71988123
   0.12691588  0.24499276  0.89351686
   0.62691586  0.24499276  0.89351686
   0.11694091  0.28256909  0.78102756
   0.61694092  0.28256909  0.78102756
   0.12691588  0.74499279  0.39351686
   0.62691586  0.74499279  0.39351686
   0.11694091  0.78256903  0.28102756
   0.61694092  0.78256903  0.28102756
   0.12728352  0.24373947  0.00159995
   0.62728355  0.24373947  0.00159995
   0.12728352  0.74373947  0.50159992
   0.62728355  0.74373947  0.50159992
   0.37471655  0.75947153  0.00148815
   0.87471658  0.75947153  0.00148815
   0.37471655  0.25947156  0.50148815
   0.87471658  0.25947156  0.50148815
   0.39656218  0.75077664  0.34721838
   0.89656221  0.75077664  0.34721838
   0.39656218  0.25077661  0.84721838
   0.89656221  0.25077661  0.84721838
   0.39628654  0.75030212  0.65231745
   0.89628654  0.75030212  0.65231745
   0.39628654  0.25030212  0.15231749
   0.89628654  0.25030212  0.15231749
   0.39935329  0.75271537  0.45079922
   0.89935329  0.75271537  0.45079922
   0.39935329  0.25271537  0.95079916
   0.89935329  0.25271537  0.95079916
   0.14508625  0.24803723  0.65192072
   0.64508625  0.24803723  0.65192072
   0.14508625  0.74803721  0.15192070
   0.64508625  0.74803721  0.15192070
   0.14842299  0.24608941  0.45127978
   0.64842302  0.24608941  0.45127978
   0.14842299  0.74608942  0.95127981
   0.64842302  0.74608942  0.95127981
   0.39829550  0.75362879  0.54936884
   0.89829553  0.75362879  0.54936884
   0.39829550  0.25362876  0.04936885
   0.89829553  0.25362876  0.04936885
   0.30365197  0.55174681  0.05379423
   0.80365197  0.55174681  0.05379423
   0.16085700  0.31944890  0.40571314
   0.66085700  0.31944890  0.40571314
   0.26154476  0.47184841  0.13703292
   0.76154479  0.47184841  0.13703292
   0.15386388  0.18396888  0.30239502
   0.65386388  0.18396888  0.30239502
   0.25074106  0.49810128  0.25056595
   0.75074109  0.49810128  0.25056595
   0.00910091  0.96488003  0.03881426
   0.50910091  0.96488003  0.03881426
   0.04995167  0.05227490  0.14872092
   0.54995164  0.05227490  0.14872092
   0.30365197  0.05174680  0.55379422
   0.80365197  0.05174680  0.55379422
   0.16085700  0.81944890  0.90571314
   0.66085700  0.81944890  0.90571314
   0.26154476  0.97184841  0.63703288
   0.76154479  0.97184841  0.63703288
   0.15386388  0.68396882  0.80239499
   0.65386388  0.68396882  0.80239499
   0.25074106  0.99810131  0.75056598
   0.75074109  0.99810131  0.75056598
   0.00910091  0.46488006  0.53881424
   0.50910091  0.46488006  0.53881424
   0.04995167  0.55227495  0.64872095
   0.54995164  0.55227495  0.64872095
   0.05385983  0.44626568  0.94671678
   0.55385986  0.44626568  0.94671678
   0.40906085  0.68111909  0.59605377
   0.90906082  0.68111909  0.59605377
   0.01283772  0.52234009  0.86219808
   0.51283774  0.52234009  0.86219808
   0.39524158  0.80807684  0.69534679
   0.89524155  0.80807684  0.69534679
   0.99966448  0.50551491  0.74886019
   0.49966448  0.50551491  0.74886019
   0.26192790  0.03479951  0.96270792
   0.76192790  0.03479951  0.96270792
   0.29495373  0.95640608  0.85174726
   0.79495376  0.95640608  0.85174726
   0.05385983  0.94626571  0.44671678
   0.55385986  0.94626571  0.44671678
   0.40906085  0.18111912  0.09605376
   0.90906082  0.18111912  0.09605376
   0.01283772  0.02234010  0.36219811
   0.51283774  0.02234010  0.36219811
   0.39524158  0.30807687  0.19534682
   0.89524155  0.30807687  0.19534682
   0.99966448  0.00551493  0.24886023
   0.49966448  0.00551493  0.24886023
   0.26192790  0.53479950  0.46270792
   0.76192790  0.53479950  0.46270792
   0.29495373  0.45640614  0.35174729
   0.79495376  0.45640614  0.35174729
   0.05380444  0.44248062  0.05356893
   0.55380444  0.44248062  0.05356893
   0.40831965  0.68328909  0.40479499
   0.90831965  0.68328909  0.40479499
   0.01130010  0.52440033  0.13673994
   0.51130012  0.52440033  0.13673994
   0.39484319  0.80782786  0.30386102
   0.89484319  0.80782786  0.30386102
   0.99991087  0.50821947  0.25083544
   0.49991087  0.50821947  0.25083544
   0.26052054  0.03770789  0.03888067
   0.76052054  0.03770789  0.03888067
   0.30034702  0.94660193  0.14927515
   0.80034699  0.94660193  0.14927515
   0.05380444  0.94248062  0.55356898
   0.55380444  0.94248062  0.55356898
   0.40831965  0.18328909  0.90479499
   0.90831965  0.18328909  0.90479499
   0.01130010  0.02440029  0.63673991
   0.51130012  0.02440029  0.63673991
   0.39484319  0.30782789  0.80386099
   0.89484319  0.30782789  0.80386099
   0.99991087  0.00821950  0.75083544
   0.49991087  0.00821950  0.75083544
   0.26052054  0.53770789  0.53888065
   0.76052054  0.53770789  0.53888065
   0.30034702  0.44660193  0.64927521
   0.80034699  0.44660193  0.64927521
   0.30388245  0.55028895  0.94680491
   0.80388245  0.55028895  0.94680491
   0.16273901  0.31995086  0.59647983
   0.66273904  0.31995086  0.59647983
   0.26334688  0.47682481  0.86248561
   0.76334688  0.47682481  0.86248561
   0.13910115  0.18942819  0.69496004
   0.63910112  0.18942819  0.69496004
   0.25119656  0.49502502  0.74827902
   0.75119653  0.49502502  0.74827902
   0.01044055  0.96343598  0.96217880
   0.51044056  0.96343598  0.96217880
   0.04633449  0.04411503  0.85148475
   0.54633448  0.04411503  0.85148475
   0.30388245  0.05028893  0.44680500
   0.80388245  0.05028893  0.44680500
   0.16273901  0.81995089  0.09647984
   0.66273904  0.81995089  0.09647984
   0.26334688  0.97682478  0.36248555
   0.76334688  0.97682478  0.36248555
   0.13910115  0.68942820  0.19496001
   0.63910112  0.68942820  0.19496001
   0.25119656  0.99502499  0.24827899
   0.75119653  0.99502499  0.24827899
   0.01044055  0.46343604  0.46217880
   0.51044056  0.46343604  0.46217880
   0.04633449  0.54411504  0.35148478
   0.54633448  0.54411504  0.35148478
   0.16348621  0.16678701  0.50031887
   0.66348622  0.16678701  0.50031887
   0.16348621  0.66678706  0.00031893
   0.66348622  0.66678706  0.00031893
   0.41310577  0.83231137  0.50035881
   0.91310580  0.83231137  0.50035881
   0.41310577  0.33231145  0.00035881
   0.91310580  0.33231145  0.00035881
   0.14468981  0.24585018  0.34585105
   0.64468978  0.24585018  0.34585105
   0.14468981  0.74585019  0.84585108
   0.64468978  0.74585019  0.84585108