BiTiFeO                                 
           1
    11.008291    0.000018    0.001006
    -0.000001    5.493094   -0.000528
     0.044606    0.010233   40.727356
   Bi   Ti   O    Fe
  40  24 120   8
Direct configuration=     1
   0.12539262  0.25142249  0.10277589
   0.62539262  0.25142249  0.10277589
   0.11592113  0.27360120  0.21922664
   0.61592114  0.27360120  0.21922664
   0.12539262  0.75142246  0.60277593
   0.62539262  0.75142246  0.60277593
   0.11592113  0.77360123  0.71922660
   0.61592114  0.77360123  0.71922660
   0.37348971  0.75579452  0.89691681
   0.87348974  0.75579452  0.89691681
   0.36496472  0.72601807  0.78094369
   0.86496472  0.72601807  0.78094369
   0.37348971  0.25579450  0.39691684
   0.87348974  0.25579450  0.39691684
   0.36496472  0.22601809  0.28094360
   0.86496472  0.22601809  0.28094360
   0.37539062  0.74845344  0.10277402
   0.87539065  0.74845344  0.10277402
   0.36590740  0.72651929  0.21922792
   0.86590743  0.72651929  0.21922792
   0.37539062  0.24845347  0.60277402
   0.87539065  0.24845347  0.60277402
   0.36590740  0.22651927  0.71922797
   0.86590743  0.22651927  0.71922797
   0.12349047  0.24430761  0.89691782
   0.62349045  0.24430761  0.89691782
   0.11495008  0.27389649  0.78094363
   0.61495006  0.27389649  0.78094363
   0.12349047  0.74430764  0.39691785
   0.62349045  0.74430764  0.39691785
   0.11495008  0.77389646  0.28094363
   0.61495006  0.77389646  0.28094363
   0.12382086  0.24086763  0.99569589
   0.62382084  0.24086763  0.99569589
   0.12382086  0.74086761  0.49569592
   0.62382084  0.74086761  0.49569592
   0.37381828  0.75913197  0.99569941
   0.87381828  0.75913197  0.99569941
   0.37381828  0.25913197  0.49569938
   0.87381828  0.25913197  0.49569938
   0.14737041  0.24939401  0.34834525
   0.64737040  0.24939401  0.34834525
   0.14737041  0.74939400  0.84834528
   0.64737040  0.74939400  0.84834528
   0.39737290  0.75078577  0.34835398
   0.89737290  0.75078577  0.34835398
   0.39737290  0.25078580  0.84835398
   0.89737290  0.25078580  0.84835398
   0.39807394  0.74803132  0.65161622
   0.89807391  0.74803132  0.65161622
   0.39807394  0.24803135  0.15161622
   0.89807391  0.24803135  0.15161622
   0.14494899  0.24893427  0.54877973
   0.64494896  0.24893427  0.54877973
   0.14807683  0.25176156  0.65160662
   0.64807683  0.25176156  0.65160662
   0.14807683  0.75176156  0.15160663
   0.64807683  0.75176156  0.15160663
   0.14494899  0.74893427  0.04877973
   0.64494896  0.74893427  0.04877973
   0.39494765  0.75099480  0.54878044
   0.89494765  0.75099480  0.54878044
   0.39494765  0.25099483  0.04878041
   0.89494765  0.25099483  0.04878041
   0.28877243  0.52862483  0.05685697
   0.78877246  0.52862483  0.05685697
   0.16304733  0.31916881  0.40300453
   0.66304731  0.31916881  0.40300453
   0.26297113  0.47159904  0.13678940
   0.76297116  0.47159904  0.13678940
   0.14717852  0.18521482  0.30450118
   0.64717853  0.18521482  0.30450118
   0.24922179  0.49468193  0.25110707
   0.74922180  0.49468193  0.25110707
   0.01169611  0.97363341  0.03983734
   0.51169610  0.97363341  0.03983734
   0.05512015  0.05825036  0.14995334
   0.55512017  0.05825036  0.14995334
   0.28877243  0.02862487  0.55685693
   0.78877246  0.02862487  0.55685693
   0.16304733  0.81916881  0.90300453
   0.66304731  0.81916881  0.90300453
   0.26297113  0.97159910  0.63678938
   0.76297116  0.97159910  0.63678938
   0.14717852  0.68521476  0.80450118
   0.64717853  0.68521476  0.80450118
   0.24922179  0.99468195  0.75110710
   0.74922180  0.99468195  0.75110710
   0.01169611  0.47363344  0.53983736
   0.51169610  0.47363344  0.53983736
   0.05512015  0.55825043  0.64995337
   0.55512017  0.55825043  0.64995337
   0.05816121  0.43650752  0.94733709
   0.55816120  0.43650752  0.94733709
   0.41161132  0.67497748  0.59691650
   0.91161132  0.67497748  0.59691650
   0.01360945  0.52612740  0.86302346
   0.51360947  0.52612740  0.86302346
   0.39603216  0.81261104  0.69527358
   0.89603216  0.81261104  0.69527358
   0.99935406  0.50537020  0.74880075
   0.49935406  0.50537020  0.74880075
   0.25966114  0.03682101  0.96143496
   0.75966114  0.03682101  0.96143496
   0.30233610  0.94707924  0.84991252
   0.80233610  0.94707924  0.84991252
   0.05816121  0.93650758  0.44733703
   0.55816120  0.93650758  0.44733703
   0.41161132  0.17497750  0.09691651
   0.91161132  0.17497750  0.09691651
   0.01360945  0.02612740  0.36302346
   0.51360947  0.02612740  0.36302346
   0.39603216  0.31261101  0.19527356
   0.89603216  0.31261101  0.19527356
   0.99935406  0.00537021  0.24880077
   0.49935406  0.00537021  0.24880077
   0.25966114  0.53682101  0.46143496
   0.75966114  0.53682101  0.46143496
   0.30233610  0.44707933  0.34991258
   0.80233610  0.44707933  0.34991258
   0.03877192  0.47127950  0.05685371
   0.53877193  0.47127950  0.05685371
   0.41302919  0.68092793  0.40300581
   0.91302919  0.68092793  0.40300581
   0.01297795  0.52817684  0.13678731
   0.51297796  0.52817684  0.13678731
   0.39719105  0.81490392  0.30450237
   0.89719105  0.81490392  0.30450237
   0.99923378  0.50533986  0.25110427
   0.49923378  0.50533986  0.25110427
   0.26170078  0.02631488  0.03983581
   0.76170075  0.02631488  0.03983581
   0.30512813  0.94149721  0.14995068
   0.80512810  0.94149721  0.14995068
   0.03877192  0.97127944  0.55685377
   0.53877193  0.97127944  0.55685377
   0.41302919  0.18092795  0.90300584
   0.91302919  0.18092795  0.90300584
   0.01297795  0.02817682  0.63678729
   0.51297796  0.02817682  0.63678729
   0.39719105  0.31490394  0.80450231
   0.89719105  0.31490394  0.80450231
   0.99923378  0.00533989  0.75110424
   0.49923378  0.00533989  0.75110424
   0.26170078  0.52631491  0.53983575
   0.76170075  0.52631491  0.53983575
   0.30512813  0.44149718  0.64995074
   0.80512810  0.44149718  0.64995074
   0.30816740  0.56363058  0.94734615
   0.80816740  0.56363058  0.94734615
   0.16160090  0.32487008  0.59691602
   0.66160089  0.32487008  0.59691602
   0.26361310  0.47405282  0.86302525
   0.76361310  0.47405282  0.86302525
   0.14604075  0.18724847  0.69527239
   0.64604074  0.18724847  0.69527239
   0.24936755  0.49462435  0.74880391
   0.74936753  0.49462435  0.74880391
   0.00966851  0.96328783  0.96143818
   0.50966853  0.96328783  0.96143818
   0.05234325  0.05313907  0.84991616
   0.55234325  0.05313907  0.84991616
   0.30816740  0.06363055  0.44734618
   0.80816740  0.06363055  0.44734618
   0.16160090  0.82487005  0.09691601
   0.66160089  0.82487005  0.09691601
   0.26361310  0.97405279  0.36302525
   0.76361310  0.97405279  0.36302525
   0.14604075  0.68724847  0.19527233
   0.64604074  0.68724847  0.19527233
   0.24936755  0.99462432  0.24880388
   0.74936753  0.99462432  0.24880388
   0.00966851  0.46328786  0.46143818
   0.50966853  0.46328786  0.46143818
   0.05234325  0.55313909  0.34991622
   0.55234325  0.55313909  0.34991622
   0.16134031  0.16709511  0.50080538
   0.66134030  0.16709511  0.50080538
   0.16134031  0.66709518  0.00080538
   0.66134030  0.66709518  0.00080538
   0.41135010  0.83292860  0.50080395
   0.91135013  0.83292860  0.50080395
   0.41135010  0.33292869  0.00080392
   0.91135013  0.33292869  0.00080392
   0.39588386  0.75428569  0.45013940
   0.89588386  0.75428569  0.45013940
   0.39588386  0.25428566  0.95013940
   0.89588386  0.25428566  0.95013940
   0.14588185  0.24581549  0.45014057
   0.64588183  0.24581549  0.45014057
   0.14588185  0.74581546  0.95014060
   0.64588183  0.74581546  0.95014060
BiTiFeO                                 
           1
    11.013743    0.000042    0.001055
     0.000011    5.495785   -0.000549
     0.044808    0.010080   40.746559
   Bi   Ti   O    Fe
  40  24 120   8
Direct configuration=     2
   0.12539426  0.25143882  0.10277455
   0.62539426  0.25143882  0.10277455
   0.11589727  0.27360699  0.21922460
   0.61589728  0.27360699  0.21922460
   0.12539426  0.75143879  0.60277459
   0.62539426  0.75143879  0.60277459
   0.11589727  0.77360702  0.71922456
   0.61589728  0.77360702  0.71922456
   0.37349020  0.75580178  0.89691487
   0.87349023  0.75580178  0.89691487
   0.36494551  0.72601575  0.78093843
   0.86494551  0.72601575  0.78093843
   0.37349020  0.25580175  0.39691490
   0.87349023  0.25580175  0.39691490
   0.36494551  0.22601576  0.28093834
   0.86494551  0.22601576  0.28093834
   0.37539452  0.74844114  0.10277261
   0.87539455  0.74844114  0.10277261
   0.36588555  0.72651451  0.21922566
   0.86588558  0.72651451  0.21922566
   0.37539452  0.24844117  0.60277262
   0.87539455  0.24844117  0.60277262
   0.36588555  0.22651449  0.71922570
   0.86588558  0.22651449  0.71922570
   0.12348873  0.24430054  0.89691588
   0.62348871  0.24430054  0.89691588
   0.11492999  0.27389717  0.78093807
   0.61492997  0.27389717  0.78093807
   0.12348873  0.74430057  0.39691591
   0.62348871  0.74430057  0.39691591
   0.11492999  0.77389714  0.28093807
   0.61492997  0.77389714  0.28093807
   0.12382773  0.24085702  0.99569469
   0.62382772  0.24085702  0.99569469
   0.12382773  0.74085700  0.49569472
   0.62382772  0.74085700  0.49569472
   0.37382735  0.75914136  0.99569833
   0.87382735  0.75914136  0.99569833
   0.37382735  0.25914136  0.49569830
   0.87382735  0.25914136  0.49569830
   0.14736879  0.24937933  0.34833849
   0.64736877  0.24937933  0.34833849
   0.14736879  0.74937931  0.84833852
   0.64736877  0.74937931  0.84833852
   0.39737143  0.75079902  0.34834711
   0.89737143  0.75079902  0.34834711
   0.39737143  0.25079905  0.84834711
   0.89737143  0.25079905  0.84834711
   0.39807826  0.74803721  0.65161915
   0.89807823  0.74803721  0.65161915
   0.39807826  0.24803724  0.15161915
   0.89807823  0.24803724  0.15161915
   0.14495158  0.24893279  0.54878181
   0.64495155  0.24893279  0.54878181
   0.14808105  0.25175574  0.65160967
   0.64808105  0.25175574  0.65160967
   0.14808105  0.75175574  0.15160969
   0.64808105  0.75175574  0.15160969
   0.14495158  0.74893279  0.04878181
   0.64495155  0.74893279  0.04878181
   0.39495098  0.75099771  0.54878258
   0.89495098  0.75099771  0.54878258
   0.39495098  0.25099774  0.04878255
   0.89495098  0.25099774  0.04878255
   0.28870859  0.52853908  0.05687227
   0.78870862  0.52853908  0.05687227
   0.16301408  0.31916794  0.40300753
   0.66301406  0.31916794  0.40300753
   0.26302191  0.47157937  0.13679253
   0.76302194  0.47157937  0.13679253
   0.14716573  0.18521934  0.30450607
   0.64716575  0.18521934  0.30450607
   0.24921624  0.49467230  0.25112097
   0.74921625  0.49467230  0.25112097
   0.01170769  0.97369159  0.03983318
   0.51170768  0.97369159  0.03983318
   0.05512997  0.05827198  0.14994727
   0.55512999  0.05827198  0.14994727
   0.28870859  0.02853912  0.55687223
   0.78870862  0.02853912  0.55687223
   0.16301408  0.81916794  0.90300753
   0.66301406  0.81916794  0.90300753
   0.26302191  0.97157943  0.63679252
   0.76302194  0.97157943  0.63679252
   0.14716573  0.68521928  0.80450607
   0.64716575  0.68521928  0.80450607
   0.24921624  0.99467233  0.75112100
   0.74921625  0.99467233  0.75112100
   0.01170769  0.47369162  0.53983320
   0.51170768  0.47369162  0.53983320
   0.05512997  0.55827204  0.64994730
   0.55512999  0.55827204  0.64994730
   0.05819446  0.43651475  0.94734505
   0.55819444  0.43651475  0.94734505
   0.41164439  0.67494656  0.59691689
   0.91164439  0.67494656  0.59691689
   0.01358142  0.52614319  0.86301350
   0.51358145  0.52614319  0.86301350
   0.39604628  0.81261097  0.69526505
   0.89604628  0.81261097  0.69526505
   0.99933193  0.50537905  0.74878370
   0.49933193  0.50537905  0.74878370
   0.25968355  0.03682508  0.96144146
   0.75968355  0.03682508  0.96144146
   0.30237424  0.94709427  0.84991617
   0.80237424  0.94709427  0.84991617
   0.05819446  0.93651481  0.44734499
   0.55819444  0.93651481  0.44734499
   0.41164439  0.17494657  0.09691690
   0.91164439  0.17494657  0.09691690
   0.01358142  0.02614320  0.36301350
   0.51358145  0.02614320  0.36301350
   0.39604628  0.31261094  0.19526504
   0.89604628  0.31261094  0.19526504
   0.99933193  0.00537906  0.24878372
   0.49933193  0.00537906  0.24878372
   0.25968355  0.53682508  0.46144146
   0.75968355  0.53682508  0.46144146
   0.30237424  0.44709436  0.34991623
   0.80237424  0.44709436  0.34991623
   0.03875215  0.47136561  0.05686917
   0.53875216  0.47136561  0.05686917
   0.41304925  0.68092620  0.40300920
   0.91304925  0.68092620  0.40300920
   0.01295524  0.52819783  0.13679047
   0.51295525  0.52819783  0.13679047
   0.39718666  0.81489784  0.30450725
   0.89718666  0.81489784  0.30450725
   0.99920995  0.50534949  0.25111860
   0.49920995  0.50534949  0.25111860
   0.26177112  0.02625683  0.03983161
   0.76177109  0.02625683  0.03983161
   0.30515313  0.94147813  0.14994454
   0.80515310  0.94147813  0.14994454
   0.03875215  0.97136555  0.55686923
   0.53875216  0.97136555  0.55686923
   0.41304925  0.18092622  0.90300923
   0.91304925  0.18092622  0.90300923
   0.01295524  0.02819781  0.63679045
   0.51295525  0.02819781  0.63679045
   0.39718666  0.31489787  0.80450719
   0.89718666  0.31489787  0.80450719
   0.99920995  0.00534952  0.75111857
   0.49920995  0.00534952  0.75111857
   0.26177112  0.52625686  0.53983155
   0.76177109  0.52625686  0.53983155
   0.30515313  0.44147810  0.64994460
   0.80515310  0.44147810  0.64994460
   0.30814563  0.56361992  0.94735408
   0.80814563  0.56361992  0.94735408
   0.16157148  0.32490151  0.59691640
   0.66157146  0.32490151  0.59691640
   0.26366475  0.47403625  0.86301540
   0.76366475  0.47403625  0.86301540
   0.14601864  0.18725085  0.69526398
   0.64601862  0.18725085  0.69526398
   0.24936226  0.49461425  0.74878654
   0.74936225  0.49461425  0.74878654
   0.00968134  0.96328316  0.96144458
   0.50968136  0.96328316  0.96144458
   0.05231536  0.05312077  0.84991989
   0.55231536  0.05312077  0.84991989
   0.30814563  0.06361989  0.44735411
   0.80814563  0.06361989  0.44735411
   0.16157148  0.82490148  0.09691639
   0.66157146  0.82490148  0.09691639
   0.26366475  0.97403622  0.36301540
   0.76366475  0.97403622  0.36301540
   0.14601864  0.68725085  0.19526392
   0.64601862  0.68725085  0.19526392
   0.24936226  0.99461422  0.24878651
   0.74936225  0.99461422  0.24878651
   0.00968134  0.46328319  0.46144458
   0.50968136  0.46328319  0.46144458
   0.05231536  0.55312078  0.34991995
   0.55231536  0.55312078  0.34991995
   0.16131421  0.16707981  0.50081123
   0.66131420  0.16707981  0.50081123
   0.16131421  0.66707988  0.00081123
   0.66131420  0.66707988  0.00081123
   0.41138802  0.83294575  0.50080968
   0.91138805  0.83294575  0.50080968
   0.41138802  0.33294584  0.00080965
   0.91138805  0.33294584  0.00080965
   0.39587944  0.75428112  0.45013392
   0.89587944  0.75428112  0.45013392
   0.39587944  0.25428109  0.95013392
   0.89587944  0.25428109  0.95013392
   0.14587759  0.24582208  0.45013529
   0.64587758  0.24582208  0.45013529
   0.14587759  0.74582205  0.95013531
   0.64587758  0.74582205  0.95013531
BiTiFeO                                 
           1
    11.014619    0.000066    0.001154
     0.000023    5.496022   -0.000586
     0.045176    0.009810   40.736703
   Bi   Ti   O    Fe
  40  24 120   8
Direct configuration=     3
   0.12542554  0.25146006  0.10276315
   0.62542554  0.25146006  0.10276315
   0.11590514  0.27355953  0.21920385
   0.61590515  0.27355953  0.21920385
   0.12542554  0.75146003  0.60276319
   0.62542554  0.75146003  0.60276319
   0.11590514  0.77355956  0.71920380
   0.61590515  0.77355956  0.71920380
   0.37352270  0.75578759  0.89692124
   0.87352273  0.75578759  0.89692124
   0.36495546  0.72607004  0.78095467
   0.86495546  0.72607004  0.78095467
   0.37352270  0.25578756  0.39692127
   0.87352273  0.25578756  0.39692127
   0.36495546  0.22607005  0.28095458
   0.86495546  0.22607005  0.28095458
   0.37543225  0.74841821  0.10276125
   0.87543228  0.74841821  0.10276125
   0.36589720  0.72655254  0.21920480
   0.86589723  0.72655254  0.21920480
   0.37543225  0.24841824  0.60276125
   0.87543228  0.24841824  0.60276125
   0.36589720  0.22655253  0.71920485
   0.86589723  0.22655253  0.71920485
   0.12351903  0.24431773  0.89692236
   0.62351900  0.24431773  0.89692236
   0.11493593  0.27384950  0.78095314
   0.61493592  0.27384950  0.78095314
   0.12351903  0.74431776  0.39692239
   0.62351900  0.74431776  0.39692239
   0.11493593  0.77384947  0.28095314
   0.61493592  0.77384947  0.28095314
   0.12384242  0.24084605  0.99570631
   0.62384240  0.24084605  0.99570631
   0.12384242  0.74084604  0.49570634
   0.62384240  0.74084604  0.49570634
   0.37384455  0.75916031  0.99570957
   0.87384455  0.75916031  0.99570957
   0.37384455  0.25916031  0.49570954
   0.87384455  0.25916031  0.49570954
   0.14737168  0.24941181  0.34836594
   0.64737166  0.24941181  0.34836594
   0.14737168  0.74941179  0.84836597
   0.64737166  0.74941179  0.84836597
   0.39737661  0.75076878  0.34837097
   0.89737661  0.75076878  0.34837097
   0.39737661  0.25076881  0.84837097
   0.89737661  0.25076881  0.84837097
   0.39808424  0.74800129  0.65158771
   0.89808421  0.74800129  0.65158771
   0.39808424  0.24800132  0.15158771
   0.89808421  0.24800132  0.15158771
   0.14494732  0.24895021  0.54878247
   0.64494729  0.24895021  0.54878247
   0.14808060  0.25178962  0.65157963
   0.64808060  0.25178962  0.65157963
   0.14808060  0.75178962  0.15157964
   0.64808060  0.75178962  0.15157964
   0.14494732  0.74895021  0.04878248
   0.64494729  0.74895021  0.04878248
   0.39495731  0.75099503  0.54878440
   0.89495731  0.75099503  0.54878440
   0.39495731  0.25099506  0.04878437
   0.89495731  0.25099506  0.04878437
   0.28867045  0.52849615  0.05687821
   0.78867048  0.52849615  0.05687821
   0.16299300  0.31914601  0.40300085
   0.66299299  0.31914601  0.40300085
   0.26302602  0.47157304  0.13679779
   0.76302605  0.47157304  0.13679779
   0.14715209  0.18519991  0.30446994
   0.64715210  0.18519991  0.30446994
   0.24920154  0.49467552  0.25112915
   0.74920156  0.49467552  0.25112915
   0.01171697  0.97371106  0.03983137
   0.51171696  0.97371106  0.03983137
   0.05513195  0.05828851  0.14995466
   0.55513198  0.05828851  0.14995466
   0.28867045  0.02849619  0.55687817
   0.78867048  0.02849619  0.55687817
   0.16299300  0.81914601  0.90300085
   0.66299299  0.81914601  0.90300085
   0.26302602  0.97157310  0.63679777
   0.76302605  0.97157310  0.63679777
   0.14715209  0.68519985  0.80446994
   0.64715210  0.68519985  0.80446994
   0.24920154  0.99467555  0.75112918
   0.74920156  0.99467555  0.75112918
   0.01171697  0.47371109  0.53983139
   0.51171696  0.47371109  0.53983139
   0.05513195  0.55828857  0.64995469
   0.55513198  0.55828857  0.64995469
   0.05818831  0.43651690  0.94734512
   0.55818829  0.43651690  0.94734512
   0.41165270  0.67495378  0.59692697
   0.91165270  0.67495378  0.59692697
   0.01357690  0.52616808  0.86300709
   0.51357692  0.52616808  0.86300709
   0.39604385  0.81263967  0.69530267
   0.89604385  0.81263967  0.69530267
   0.99931713  0.50537193  0.74877381
   0.49931713  0.50537193  0.74877381
   0.25969271  0.03682061  0.96143764
   0.75969271  0.03682061  0.96143764
   0.30236825  0.94706780  0.84990968
   0.80236825  0.94706780  0.84990968
   0.05818831  0.93651696  0.44734506
   0.55818829  0.93651696  0.44734506
   0.41165270  0.17495380  0.09692698
   0.91165270  0.17495380  0.09692698
   0.01357690  0.02616809  0.36300709
   0.51357692  0.02616809  0.36300709
   0.39604385  0.31263965  0.19530266
   0.89604385  0.31263965  0.19530266
   0.99931713  0.00537194  0.24877382
   0.49931713  0.00537194  0.24877382
   0.25969271  0.53682060  0.46143764
   0.75969271  0.53682060  0.46143764
   0.30236825  0.44706789  0.34990974
   0.80236825  0.44706789  0.34990974
   0.03872388  0.47139932  0.05687572
   0.53872389  0.47139932  0.05687572
   0.41305265  0.68095309  0.40300448
   0.91305265  0.68095309  0.40300448
   0.01295095  0.52822830  0.13679610
   0.51295096  0.52822830  0.13679610
   0.39717761  0.81491712  0.30447065
   0.89717761  0.81491712  0.30447065
   0.99918967  0.50534812  0.25112720
   0.49918967  0.50534812  0.25112720
   0.26178784  0.02621594  0.03983009
   0.76178781  0.02621594  0.03983009
   0.30515168  0.94145739  0.14995196
   0.80515165  0.94145739  0.14995196
   0.03872388  0.97139926  0.55687578
   0.53872389  0.97139926  0.55687578
   0.41305265  0.18095311  0.90300451
   0.91305265  0.18095311  0.90300451
   0.01295095  0.02822828  0.63679609
   0.51295096  0.02822828  0.63679609
   0.39717761  0.31491715  0.80447059
   0.89717761  0.31491715  0.80447059
   0.99918967  0.00534815  0.75112718
   0.49918967  0.00534815  0.75112718
   0.26178784  0.52621597  0.53983004
   0.76178781  0.52621597  0.53983004
   0.30515168  0.44145736  0.64995202
   0.80515165  0.44145736  0.64995202
   0.30812670  0.56359367  0.94735376
   0.80812670  0.56359367  0.94735376
   0.16155502  0.32489622  0.59692770
   0.66155501  0.32489622  0.59692770
   0.26366311  0.47404309  0.86300930
   0.76366311  0.47404309  0.86300930
   0.14599951  0.18722546  0.69529937
   0.64599950  0.18722546  0.69529937
   0.24934577  0.49461876  0.74877664
   0.74934576  0.49461876  0.74877664
   0.00968358  0.96328564  0.96144110
   0.50968360  0.96328564  0.96144110
   0.05230816  0.05310482  0.84991251
   0.55230816  0.05310482  0.84991251
   0.30812670  0.06359364  0.44735379
   0.80812670  0.06359364  0.44735379
   0.16155502  0.82489619  0.09692769
   0.66155501  0.82489619  0.09692769
   0.26366311  0.97404306  0.36300930
   0.76366311  0.97404306  0.36300930
   0.14599951  0.68722546  0.19529931
   0.64599950  0.68722546  0.19529931
   0.24934577  0.99461873  0.24877661
   0.74934576  0.99461873  0.24877661
   0.00968358  0.46328567  0.46144110
   0.50968360  0.46328567  0.46144110
   0.05230816  0.55310484  0.34991257
   0.55230816  0.55310484  0.34991257
   0.16130008  0.16708935  0.50080556
   0.66130007  0.16708935  0.50080556
   0.16130008  0.66708942  0.00080556
   0.66130007  0.66708942  0.00080556
   0.41139846  0.83294634  0.50080365
   0.91139849  0.83294634  0.50080365
   0.41139846  0.33294643  0.00080362
   0.91139849  0.33294643  0.00080362
   0.39587870  0.75428152  0.45013827
   0.89587870  0.75428152  0.45013827
   0.39587870  0.25428149  0.95013827
   0.89587870  0.25428149  0.95013827
   0.14587668  0.24582833  0.45013947
   0.64587667  0.24582833  0.45013947
   0.14587668  0.74582830  0.95013950
   0.64587667  0.74582830  0.95013950
BiTiFeO                                 
           1
    11.011610    0.000091    0.001305
     0.000036    5.494395   -0.000642
     0.045723    0.009388   40.723762
   Bi   Ti   O    Fe
  40  24 120   8
Direct configuration=     4
   0.12544919  0.25149048  0.10276331
   0.62544919  0.25149048  0.10276331
   0.11589802  0.27354277  0.21920073
   0.61589803  0.27354277  0.21920073
   0.12544919  0.75149045  0.60276335
   0.62544919  0.75149045  0.60276335
   0.11589802  0.77354280  0.71920069
   0.61589803  0.77354280  0.71920069
   0.37354031  0.75577406  0.89691671
   0.87354034  0.75577406  0.89691671
   0.36494847  0.72609251  0.78095290
   0.86494847  0.72609251  0.78095290
   0.37354031  0.25577403  0.39691674
   0.87354034  0.25577403  0.39691674
   0.36494847  0.22609253  0.28095281
   0.86494847  0.22609253  0.28095281
   0.37546086  0.74838435  0.10276160
   0.87546089  0.74838435  0.10276160
   0.36589508  0.72655687  0.21920149
   0.86589511  0.72655687  0.21920149
   0.37546086  0.24838438  0.60276161
   0.87546089  0.24838438  0.60276161
   0.36589508  0.22655686  0.71920154
   0.86589511  0.22655686  0.71920154
   0.12353408  0.24433437  0.89691814
   0.62353405  0.24433437  0.89691814
   0.11492715  0.27383697  0.78095011
   0.61492714  0.27383697  0.78095011
   0.12353408  0.74433440  0.39691817
   0.62353405  0.74433440  0.39691817
   0.11492715  0.77383694  0.28095011
   0.61492714  0.77383694  0.28095011
   0.12384792  0.24083937  0.99571073
   0.62384791  0.24083937  0.99571073
   0.12384792  0.74083935  0.49571076
   0.62384791  0.74083935  0.49571076
   0.37385195  0.75917992  0.99571355
   0.87385195  0.75917992  0.99571355
   0.37385195  0.25917992  0.49571352
   0.87385195  0.25917992  0.49571352
   0.14737596  0.24939822  0.34834399
   0.64737594  0.24939822  0.34834399
   0.14737596  0.74939821  0.84834402
   0.64737594  0.74939821  0.84834402
   0.39738236  0.75077958  0.34834642
   0.89738236  0.75077958  0.34834642
   0.39738236  0.25077961  0.84834642
   0.89738236  0.25077961  0.84834642
   0.39809024  0.74800901  0.65161095
   0.89809021  0.74800901  0.65161095
   0.39809024  0.24800904  0.15161095
   0.89809021  0.24800904  0.15161095
   0.14494364  0.24895708  0.54878480
   0.64494361  0.24895708  0.54878480
   0.14808136  0.25178082  0.65160258
   0.64808136  0.25178082  0.65160258
   0.14808136  0.75178082  0.15160259
   0.64808136  0.75178082  0.15160259
   0.14494364  0.74895708  0.04878480
   0.64494361  0.74895708  0.04878480
   0.39496160  0.75100707  0.54878746
   0.89496160  0.75100707  0.54878746
   0.39496160  0.25100710  0.04878743
   0.89496160  0.25100710  0.04878743
   0.28862415  0.52841495  0.05688507
   0.78862418  0.52841495  0.05688507
   0.16297361  0.31912831  0.40299906
   0.66297360  0.31912831  0.40299906
   0.26303271  0.47156409  0.13679513
   0.76303274  0.47156409  0.13679513
   0.14713968  0.18524818  0.30448326
   0.64713970  0.18524818  0.30448326
   0.24919263  0.49468258  0.25113500
   0.74919265  0.49468258  0.25113500
   0.01173578  0.97374054  0.03982962
   0.51173577  0.97374054  0.03982962
   0.05513903  0.05831164  0.14995246
   0.55513906  0.05831164  0.14995246
   0.28862415  0.02841499  0.55688503
   0.78862418  0.02841499  0.55688503
   0.16297361  0.81912831  0.90299906
   0.66297360  0.81912831  0.90299906
   0.26303271  0.97156415  0.63679511
   0.76303274  0.97156415  0.63679511
   0.14713968  0.68524812  0.80448326
   0.64713970  0.68524812  0.80448326
   0.24919263  0.99468260  0.75113503
   0.74919265  0.99468260  0.75113503
   0.01173578  0.47374057  0.53982964
   0.51173577  0.47374057  0.53982964
   0.05513903  0.55831170  0.64995248
   0.55513906  0.55831170  0.64995248
   0.05818742  0.43651653  0.94734859
   0.55818740  0.43651653  0.94734859
   0.41166947  0.67495541  0.59693041
   0.91166947  0.67495541  0.59693041
   0.01357260  0.52619410  0.86300617
   0.51357262  0.52619410  0.86300617
   0.39604900  0.81259456  0.69528644
   0.89604900  0.81259456  0.69528644
   0.99930832  0.50536085  0.74876405
   0.49930832  0.50536085  0.74876405
   0.25970443  0.03681820  0.96143806
   0.75970443  0.03681820  0.96143806
   0.30236886  0.94704620  0.84991230
   0.80236886  0.94704620  0.84991230
   0.05818742  0.93651659  0.44734853
   0.55818740  0.93651659  0.44734853
   0.41166947  0.17495543  0.09693043
   0.91166947  0.17495543  0.09693043
   0.01357260  0.02619410  0.36300617
   0.51357262  0.02619410  0.36300617
   0.39604900  0.31259453  0.19528642
   0.89604900  0.31259453  0.19528642
   0.99930832  0.00536086  0.24876407
   0.49930832  0.00536086  0.24876407
   0.25970443  0.53681820  0.46143806
   0.75970443  0.53681820  0.46143806
   0.30236886  0.44704629  0.34991236
   0.80236886  0.44704629  0.34991236
   0.03868774  0.47146353  0.05688337
   0.53868775  0.47146353  0.05688337
   0.41306558  0.68097806  0.40300449
   0.91306558  0.68097806  0.40300449
   0.01294558  0.52826505  0.13679389
   0.51294559  0.52826505  0.13679389
   0.39717114  0.81486885  0.30448195
   0.89717114  0.81486885  0.30448195
   0.99917406  0.50534278  0.25113368
   0.49917406  0.50534278  0.25113368
   0.26181946  0.02616183  0.03982900
   0.76181943  0.02616183  0.03982900
   0.30515692  0.94143728  0.14994948
   0.80515689  0.94143728  0.14994948
   0.03868774  0.97146347  0.55688343
   0.53868775  0.97146347  0.55688343
   0.41306558  0.18097808  0.90300452
   0.91306558  0.18097808  0.90300452
   0.01294558  0.02826502  0.63679388
   0.51294559  0.02826502  0.63679388
   0.39717114  0.31486888  0.80448189
   0.89717114  0.31486888  0.80448189
   0.99917406  0.00534281  0.75113365
   0.49917406  0.00534281  0.75113365
   0.26181946  0.52616186  0.53982895
   0.76181943  0.52616186  0.53982895
   0.30515692  0.44143725  0.64994954
   0.80515689  0.44143725  0.64994954
   0.30810889  0.56356310  0.94735682
   0.80810889  0.56356310  0.94735682
   0.16153886  0.32489795  0.59693207
   0.66153885  0.32489795  0.59693207
   0.26366653  0.47404773  0.86300877
   0.76366653  0.47404773  0.86300877
   0.14598132  0.18727130  0.69528217
   0.64598131  0.18727130  0.69528217
   0.24933623  0.49462672  0.74876704
   0.74933621  0.49462672  0.74876704
   0.00968704  0.96328296  0.96144216
   0.50968706  0.96328296  0.96144216
   0.05230181  0.05308693  0.84991385
   0.55230181  0.05308693  0.84991385
   0.30810889  0.06356307  0.44735685
   0.80810889  0.06356307  0.44735685
   0.16153886  0.82489792  0.09693206
   0.66153885  0.82489792  0.09693206
   0.26366653  0.97404770  0.36300877
   0.76366653  0.97404770  0.36300877
   0.14598132  0.68727130  0.19528211
   0.64598131  0.68727130  0.19528211
   0.24933623  0.99462669  0.24876701
   0.74933621  0.99462669  0.24876701
   0.00968704  0.46328299  0.46144216
   0.50968706  0.46328299  0.46144216
   0.05230181  0.55308695  0.34991391
   0.55230181  0.55308695  0.34991391
   0.16128971  0.16709534  0.50080561
   0.66128969  0.16709534  0.50080561
   0.16128971  0.66709542  0.00080561
   0.66128969  0.66709542  0.00080561
   0.41142054  0.83295318  0.50080363
   0.91142057  0.83295318  0.50080363
   0.41142054  0.33295327  0.00080360
   0.91142057  0.33295327  0.00080360
   0.39588280  0.75429090  0.45013998
   0.89588280  0.75429090  0.45013998
   0.39588280  0.25429087  0.95013998
   0.89588280  0.25429087  0.95013998