BiTiFeO                                 
           1
    10.999519    0.000120    0.006219
     0.000060    5.489498   -0.000287
     0.023030    0.037064   40.660850
   Bi   Ti   O    Fe
  40  24 120   8
Direct configuration=     1
   0.12540500  0.24701200  0.10288400
   0.62540501  0.24701200  0.10288400
   0.11819500  0.27398101  0.21917300
   0.61819500  0.27398101  0.21917300
   0.12540500  0.74701202  0.60288399
   0.62540501  0.74701202  0.60288399
   0.11819500  0.77398098  0.71917301
   0.61819500  0.77398098  0.71917301
   0.37540501  0.75298798  0.89711601
   0.87540501  0.75298798  0.89711601
   0.36819500  0.72601902  0.78082699
   0.86819500  0.72601902  0.78082699
   0.37540501  0.25298801  0.39711601
   0.87540501  0.25298801  0.39711601
   0.36819500  0.22601899  0.28082699
   0.86819500  0.22601899  0.28082699
   0.37283501  0.75149101  0.10287400
   0.87283498  0.75149101  0.10287400
   0.36714301  0.72705799  0.21907400
   0.86714298  0.72705799  0.21907400
   0.37283501  0.25149101  0.60287398
   0.87283498  0.25149101  0.60287398
   0.36714301  0.22705799  0.71907401
   0.86714298  0.22705799  0.71907401
   0.12283500  0.24850901  0.89712602
   0.62283498  0.24850901  0.89712602
   0.11714300  0.27294201  0.78092599
   0.61714298  0.27294201  0.78092599
   0.12283500  0.74850899  0.39712599
   0.62283498  0.74850899  0.39712599
   0.11714300  0.77294201  0.28092599
   0.61714298  0.77294201  0.28092599
   0.12377300  0.23978201  0.00014700
   0.62377298  0.23978201  0.00014700
   0.12377300  0.73978198  0.50014699
   0.62377298  0.73978198  0.50014699
   0.37377301  0.76021802  0.99985301
   0.87377298  0.76021802  0.99985301
   0.37377301  0.26021799  0.49985298
   0.87377298  0.26021799  0.49985298
   0.14763600  0.25081900  0.34803700
   0.64763600  0.25081900  0.34803700
   0.14763600  0.75081903  0.84803700
   0.64763600  0.75081903  0.84803700
   0.39703199  0.74994498  0.34845200
   0.89703202  0.74994498  0.34845200
   0.39703199  0.24994500  0.84845197
   0.89703202  0.24994500  0.84845197
   0.39763600  0.74918097  0.65196300
   0.89763600  0.74918097  0.65196300
   0.39763600  0.24918100  0.15196300
   0.89763600  0.24918100  0.15196300
   0.14703199  0.25005498  0.65154803
   0.64703202  0.25005498  0.65154803
   0.14703199  0.75005502  0.15154800
   0.64703202  0.75005502  0.15154800
   0.14618400  0.24574500  0.45122001
   0.14618400  0.74574500  0.95121998
   0.39618501  0.75425500  0.54878002
   0.89618498  0.75425500  0.54878002
   0.39618501  0.25425500  0.04878000
   0.89618498  0.25425500  0.04878000
   0.64444798  0.24708700  0.54938102
   0.64444798  0.74708700  0.04938100
   0.29980001  0.54837298  0.05445400
   0.79979998  0.54837298  0.05445400
   0.16044800  0.32101300  0.40345299
   0.66044802  0.32101300  0.40345299
   0.26315701  0.47216600  0.13687401
   0.76315701  0.47216600  0.13687401
   0.14546900  0.18768901  0.30430800
   0.64546901  0.18768901  0.30430800
   0.25084099  0.49525800  0.25120100
   0.75084102  0.49525800  0.25120100
   0.00810100  0.96618199  0.03841900
   0.50810099  0.96618199  0.03841900
   0.05275800  0.05470400  0.14992800
   0.55275798  0.05470400  0.14992800
   0.29980001  0.04837300  0.55445403
   0.79979998  0.04837300  0.55445403
   0.16044800  0.82101297  0.90345299
   0.66044802  0.82101297  0.90345299
   0.26315701  0.97216600  0.63687402
   0.76315701  0.97216600  0.63687402
   0.14546900  0.68768799  0.80430800
   0.64546901  0.68768799  0.80430800
   0.25084099  0.99525797  0.75120097
   0.75084102  0.99525797  0.75120097
   0.00810100  0.46618199  0.53841901
   0.50810099  0.46618199  0.53841901
   0.05275800  0.55470401  0.64992797
   0.55275798  0.55470401  0.64992797
   0.04980000  0.45162699  0.94554597
   0.54979998  0.45162699  0.94554597
   0.41044802  0.67898703  0.59654701
   0.91044802  0.67898703  0.59654701
   0.01315700  0.52783400  0.86312598
   0.51315701  0.52783400  0.86312598
   0.39546901  0.81231201  0.69569200
   0.89546901  0.81231201  0.69569200
   0.00084100  0.50474203  0.74879903
   0.50084102  0.50474203  0.74879903
   0.25810099  0.03381800  0.96158099
   0.75810099  0.03381800  0.96158099
   0.30275801  0.94529599  0.85007203
   0.80275798  0.94529599  0.85007203
   0.04980000  0.95162702  0.44554600
   0.54979998  0.95162702  0.44554600
   0.41044802  0.17898700  0.09654700
   0.91044802  0.17898700  0.09654700
   0.01315700  0.02783400  0.36312601
   0.51315701  0.02783400  0.36312601
   0.39546901  0.31231201  0.19569200
   0.89546901  0.31231201  0.19569200
   0.00084100  0.00474200  0.24879900
   0.50084102  0.00474200  0.24879900
   0.25810099  0.53381801  0.46158099
   0.75810099  0.53381801  0.46158099
   0.30275801  0.44529599  0.35007200
   0.80275798  0.44529599  0.35007200
   0.05030400  0.44732001  0.05424400
   0.55030400  0.44732001  0.05424400
   0.41297299  0.67787600  0.40299299
   0.91297299  0.67787600  0.40299299
   0.01283000  0.52564299  0.13704200
   0.51283002  0.52564299  0.13704200
   0.39678100  0.81359398  0.30456999
   0.89678103  0.81359398  0.30456999
   0.00084700  0.50478500  0.25114101
   0.50084698  0.50478500  0.25114101
   0.25856200  0.03727600  0.03879400
   0.75856203  0.03727600  0.03879400
   0.30316600  0.94468802  0.15010300
   0.80316597  0.94468802  0.15010300
   0.05030400  0.94731998  0.55424398
   0.55030400  0.94731998  0.55424398
   0.41297299  0.17787600  0.90299302
   0.91297299  0.17787600  0.90299302
   0.01283000  0.02564300  0.63704199
   0.51283002  0.02564300  0.63704199
   0.39678100  0.31359401  0.80457002
   0.89678103  0.31359401  0.80457002
   0.00084700  0.00478500  0.75114101
   0.50084698  0.00478500  0.75114101
   0.25856200  0.53727603  0.53879398
   0.75856203  0.53727603  0.53879398
   0.30316600  0.44468799  0.65010297
   0.80316597  0.44468799  0.65010297
   0.30030400  0.55268002  0.94575602
   0.80030400  0.55268002  0.94575602
   0.16297300  0.32212400  0.59700698
   0.66297299  0.32212400  0.59700698
   0.26282999  0.47435701  0.86295801
   0.76283002  0.47435701  0.86295801
   0.14678100  0.18640600  0.69542998
   0.64678103  0.18640600  0.69542998
   0.25084701  0.49521601  0.74885899
   0.75084698  0.49521601  0.74885899
   0.00856200  0.96272397  0.96120602
   0.50856203  0.96272397  0.96120602
   0.05316600  0.05531200  0.84989703
   0.55316502  0.05531200  0.84989703
   0.30030400  0.05268000  0.44575599
   0.80030400  0.05268000  0.44575599
   0.16297300  0.82212400  0.09700700
   0.66297299  0.82212400  0.09700700
   0.26282999  0.97435701  0.36295801
   0.76283002  0.97435701  0.36295801
   0.14678100  0.68640602  0.19543000
   0.64678103  0.68640602  0.19543000
   0.25084701  0.99521500  0.24885900
   0.75084698  0.99521500  0.24885900
   0.00856200  0.46272400  0.46120599
   0.50856203  0.46272400  0.46120599
   0.05316600  0.55531198  0.34989700
   0.55316502  0.55531198  0.34989700
   0.16131300  0.16511400  0.49987301
   0.66131300  0.16511400  0.49987301
   0.16131300  0.66511500  0.99987298
   0.66131300  0.66511500  0.99987298
   0.41131300  0.83488500  0.50012702
   0.91131300  0.83488500  0.50012702
   0.41131300  0.33488601  0.00012700
   0.91131300  0.33488601  0.00012700
   0.39444801  0.75291300  0.45061901
   0.89444798  0.75291300  0.45061901
   0.39444801  0.25291300  0.95061898
   0.89444798  0.25291300  0.95061898
   0.14444800  0.24708700  0.54938102
   0.14444800  0.74708700  0.04938100
   0.64618498  0.24574500  0.45122001
   0.64618498  0.74574500  0.95121998
BiTiFeO                                 
           1
    11.009477    0.000101   -0.000862
     0.000051    5.494167   -0.000800
    -0.003162    0.033307   40.727061
   Bi   Ti   O    Fe
  40  24 120   8
Direct configuration=     2
   0.12563603  0.24696919  0.10285170
   0.62499303  0.24812826  0.10371053
   0.11830584  0.27339823  0.21952009
   0.61824138  0.27313250  0.21961866
   0.12563603  0.74696920  0.60285169
   0.62499303  0.74812827  0.60371052
   0.11830584  0.77339820  0.71952011
   0.61824138  0.77313247  0.71961868
   0.37730653  0.75317279  0.89727495
   0.87241019  0.75275415  0.89767893
   0.36816859  0.72534233  0.78120958
   0.86784808  0.72533950  0.78125347
   0.37730653  0.25317282  0.39727495
   0.87241019  0.25275418  0.39767893
   0.36816859  0.22534230  0.28120958
   0.86784808  0.22533947  0.28125347
   0.37118029  0.75137320  0.10306174
   0.87590435  0.75154214  0.10341173
   0.36712412  0.72769337  0.21944940
   0.86739960  0.72770898  0.21948956
   0.37118029  0.25137320  0.60306172
   0.87590435  0.25154214  0.60341171
   0.36712412  0.22769337  0.71944942
   0.86739960  0.22770898  0.71948957
   0.12250497  0.24855513  0.89704706
   0.62338516  0.24768780  0.89797373
   0.11691476  0.27351376  0.78128207
   0.61698950  0.27378097  0.78138785
   0.12250497  0.74855511  0.39704703
   0.62338516  0.74768778  0.39797370
   0.11691476  0.77351376  0.28128207
   0.61698950  0.77378097  0.28138785
   0.12382618  0.23986664 -0.00062567
   0.62406076  0.23934720 -0.00282563
   0.12382618  0.73986661  0.49937432
   0.62406076  0.73934717  0.49717436
   0.37402168  0.76049840  0.99820805
   0.87350374  0.76052975  0.99780588
   0.37402168  0.26049837  0.49820802
   0.87350374  0.26052972  0.49780585
   0.14754716  0.25072167  0.34835347
   0.64762859  0.25171212  0.34901359
   0.14754716  0.75072170  0.84835347
   0.64762859  0.75171215  0.84901359
   0.39787091  0.74979239  0.34890030
   0.89616427  0.74975038  0.34890932
   0.39787091  0.24979240  0.84890027
   0.89616427  0.24975040  0.84890929
   0.39687358  0.74927300  0.65236411
   0.89843970  0.74930884  0.65236612
   0.39687358  0.24927303  0.15236411
   0.89843970  0.24930887  0.15236612
   0.14713711  0.25012063  0.65186595
   0.64708890  0.24923185  0.65248573
   0.14713711  0.75012066  0.15186592
   0.64708890  0.74923188  0.15248570
   0.14636634  0.24517026  0.45071247
   0.14636634  0.74517026  0.95071244
   0.39085430  0.75516721  0.54808423
   0.90036036  0.75207762  0.54812564
   0.39085430  0.25516721  0.04808421
   0.90036036  0.25207762  0.04812562
   0.64541663  0.24673270  0.54783809
   0.64541663  0.74673270  0.04783807
   0.30068536  0.54644532  0.05473275
   0.79747607  0.55063281  0.05477608
   0.16022650  0.32092979  0.40359519
   0.66129116  0.32223429  0.40301810
   0.26346684  0.47219207  0.13678401
   0.76244458  0.47263572  0.13663513
   0.14552284  0.18706403  0.30399733
   0.64558325  0.18647958  0.30376360
   0.25075430  0.49532601  0.25099437
   0.75075885  0.49534314  0.25095620
   0.00761860  0.96765744  0.03882447
   0.50997755  0.96320973  0.03923058
   0.05246448  0.05498552  0.14983104
   0.55339459  0.05458600  0.14961910
   0.30068536  0.04644534  0.55473278
   0.79747607  0.05063282  0.55477611
   0.16022650  0.82092976  0.90359519
   0.66129116  0.82223426  0.90301810
   0.26346684  0.97219207  0.63678403
   0.76244458  0.97263572  0.63663515
   0.14552284  0.68706302  0.80399733
   0.64558325  0.68647857  0.80376360
   0.25075430  0.99532598  0.75099434
   0.75075885  0.99534311  0.75095617
   0.00761860  0.46765744  0.53882448
   0.50997755  0.46320973  0.53923058
   0.05246448  0.55498553  0.64983101
   0.55339459  0.55458601  0.64961907
   0.05056475  0.45169236  0.94581767
   0.54929443  0.44749510  0.94591693
   0.41135835  0.67930814  0.59647097
   0.90989674  0.67864386  0.59654999
   0.01380945  0.52733102  0.86297322
   0.51238916  0.52801638  0.86290347
   0.39549295  0.81160958  0.69531687
   0.89533446  0.81161043  0.69531174
   0.00087416  0.50472666  0.74855596
   0.50085465  0.50494407  0.74853449
   0.25725617  0.03341666  0.96194806
   0.75892895  0.03628000  0.96243386
   0.30249871  0.94511375  0.84996315
   0.80322720  0.94631189  0.84980913
   0.05056475  0.95169239  0.44581770
   0.54929443  0.94749513  0.44591696
   0.41135835  0.17930811  0.09647096
   0.90989674  0.17864383  0.09654998
   0.01380945  0.02733102  0.36297325
   0.51238916  0.02801638  0.36290350
   0.39549295  0.31160958  0.19531687
   0.89533446  0.31161043  0.19531174
   0.00087416  0.00472663  0.24855593
   0.50085465  0.00494405  0.24853446
   0.25725617  0.53341667  0.46194806
   0.75892895  0.53628001  0.46243386
   0.30249871  0.44511375  0.34996312
   0.80322720  0.44631189  0.34980910
   0.04927373  0.44725472  0.05448257
   0.55134543  0.45179414  0.05465385
   0.41213187  0.67734266  0.40285089
   0.91363705  0.67818188  0.40293773
   0.01221501  0.52615167  0.13688458
   0.51348230  0.52556513  0.13681623
   0.39680115  0.81443036  0.30418312
   0.89699225  0.81442827  0.30417675
   0.00078968  0.50485196  0.25092533
   0.50078111  0.50463817  0.25090322
   0.25988295  0.03862816  0.03917273
   0.75708829  0.03376674  0.03951826
   0.30347812  0.94476729  0.14996832
   0.80277806  0.94372027  0.14983016
   0.04927373  0.94725469  0.55448256
   0.55134543  0.95179411  0.55465383
   0.41213187  0.17734266  0.90285092
   0.91363705  0.17818188  0.90293776
   0.01221501  0.02615168  0.63688456
   0.51348230  0.02556514  0.63681622
   0.39680115  0.31443039  0.80418315
   0.89699225  0.31442830  0.80417678
   0.00078968  0.00485195  0.75092533
   0.50078111  0.00463817  0.75090322
   0.25988295  0.53862819  0.53917271
   0.75708829  0.53376677  0.53951824
   0.30347812  0.44476726  0.64996829
   0.80277806  0.44372024  0.64983013
   0.29959790  0.55390287  0.94609859
   0.80254020  0.55217161  0.94607213
   0.16316191  0.32206549  0.59703832
   0.66199592  0.32100404  0.59665220
   0.26258538  0.47433109  0.86287432
   0.76366118  0.47384996  0.86271639
   0.14668325  0.18696516  0.69510837
   0.64660943  0.18748204  0.69490313
   0.25084066  0.49510872  0.74862630
   0.75085095  0.49508995  0.74858742
   0.00882910  0.96231795  0.96158648
   0.50681464  0.96434871  0.96213548
   0.05351085  0.05499254  0.84982464
   0.55247331  0.05545010  0.84959225
   0.29959790  0.05390286  0.44609856
   0.80254020  0.05217160  0.44607210
   0.16316191  0.82206549  0.09703834
   0.66199592  0.82100404  0.09665222
   0.26258538  0.97433109  0.36287432
   0.76366118  0.97384996  0.36271639
   0.14668325  0.68696517  0.19510838
   0.64660943  0.68748205  0.19490314
   0.25084066  0.99510771  0.24862631
   0.75085095  0.99508893  0.24858744
   0.00882910  0.46231798  0.46158645
   0.50681464  0.46434874  0.46213545
   0.05351085  0.55499251  0.34982461
   0.55247331  0.55545008  0.34959222
   0.16122973  0.16489517  0.50034506
   0.66107187  0.16589989  0.50185914
   0.16122973  0.66489617  1.00034503
   0.66107187  0.66590089  1.00185911
   0.41117771  0.83450604  0.50110296
   0.91126361  0.83427402  0.50101105
   0.41117771  0.33450705  0.00110294
   0.91126361  0.33427503  0.00101104
   0.39758967  0.75272143  0.45012968
   0.89206432  0.75420120  0.45018036
   0.39758967  0.25272143  0.95012965
   0.89206432  0.25420120  0.95018033
   0.14429279  0.24728301  0.54902675
   0.14429279  0.74728301  0.04902673
   0.64556685  0.24600540  0.45015938
   0.64556685  0.74600540  0.95015935
BiTiFeO                                 
           1
    11.000976   -0.000053   -0.005415
    -0.000026    5.489004   -0.001087
    -0.020009    0.031139   40.661586
   Bi   Ti   O    Fe
  40  24 120   8
Direct configuration=     3
   0.12551491  0.24676293  0.10290329
   0.62508079  0.24788685  0.10350725
   0.11842124  0.27329160  0.21939839
   0.61834072  0.27286858  0.21948107
   0.12551491  0.74676294  0.60290329
   0.62508079  0.74788687  0.60350724
   0.11842124  0.77329157  0.71939840
   0.61834072  0.77286855  0.71948108
   0.37695431  0.75298209  0.89719198
   0.87288846  0.75262520  0.89764974
   0.36809618  0.72536647  0.78110567
   0.86759761  0.72529219  0.78116746
   0.37695431  0.25298212  0.39719198
   0.87288846  0.25262523  0.39764974
   0.36809618  0.22536644  0.28110567
   0.86759761  0.22529216  0.28116746
   0.37216704  0.75177976  0.10302422
   0.87499436  0.75167376  0.10331617
   0.36725898  0.72772649  0.21931236
   0.86760953  0.72782085  0.21936283
   0.37216704  0.25177976  0.60302420
   0.87499436  0.25167376  0.60331615
   0.36725898  0.22772649  0.71931237
   0.86760953  0.22782085  0.71936285
   0.12265352  0.24873277  0.89698471
   0.62336125  0.24783878  0.89791452
   0.11677154  0.27349848  0.78119315
   0.61689007  0.27397160  0.78129624
   0.12265352  0.74873275  0.39698468
   0.62336125  0.74783876  0.39791449
   0.11677154  0.77349848  0.28119315
   0.61689007  0.77397160  0.28129624
   0.12385571  0.24009919 -0.00052887
   0.62390591  0.23930497 -0.00247489
   0.12385571  0.74009916  0.49947112
   0.62390591  0.73930494  0.49752509
   0.37428170  0.76039421  0.99844108
   0.87332631  0.76040968  0.99803129
   0.37428170  0.26039418  0.49844105
   0.87332631  0.26040965  0.49803126
   0.14747692  0.25044274  0.34803840
   0.64759301  0.25141221  0.34826598
   0.14747692  0.75044277  0.84803840
   0.64759301  0.75141224  0.84826598
   0.39733567  0.74997643  0.34843414
   0.89684719  0.75001132  0.34844972
   0.39733567  0.24997645  0.84843411
   0.89684719  0.25001133  0.84844969
   0.39757547  0.74887789  0.65174576
   0.89765596  0.74878295  0.65176935
   0.39757547  0.24887792  0.15174576
   0.89765596  0.24878298  0.15176935
   0.14721748  0.25045904  0.65149329
   0.64711289  0.25016862  0.65137745
   0.14721748  0.75045907  0.15149326
   0.64711289  0.75016865  0.15137742
   0.14612208  0.24573090  0.45101275
   0.14612208  0.74573090  0.95101272
   0.39385435  0.75536364  0.54869017
   0.89791800  0.75276534  0.54869355
   0.39385435  0.25536364  0.04869015
   0.89791800  0.25276534  0.04869353
   0.64560048  0.24639853  0.54880173
   0.64560048  0.74639853  0.04880171
   0.29963553  0.54786876  0.05469605
   0.79883647  0.54844998  0.05474896
   0.16034676  0.32095022  0.40348658
   0.66127157  0.32232843  0.40295603
   0.26309760  0.47231470  0.13685794
   0.76300422  0.47241022  0.13679063
   0.14555751  0.18743608  0.30425543
   0.64568470  0.18719731  0.30436878
   0.25072392  0.49510297  0.25111326
   0.75076108  0.49519853  0.25106894
   0.00815187  0.96656911  0.03868751
   0.50876355  0.96440689  0.03905316
   0.05270237  0.05467990  0.14986372
   0.55300071  0.05476533  0.14978296
   0.29963553  0.04786878  0.55469608
   0.79883647  0.04844999  0.55474899
   0.16034676  0.82095019  0.90348658
   0.66127157  0.82232840  0.90295603
   0.26309760  0.97231470  0.63685795
   0.76300422  0.97241022  0.63679064
   0.14555751  0.68743507  0.80425543
   0.64568470  0.68719629  0.80436878
   0.25072392  0.99510294  0.75111323
   0.75076108  0.99519850  0.75106891
   0.00815187  0.46656911  0.53868752
   0.50876355  0.46440689  0.53905316
   0.05270237  0.55467991  0.64986369
   0.55300071  0.55476534  0.64978293
   0.05028150  0.45106499  0.94581782
   0.54989615  0.44775629  0.94591639
   0.41100869  0.67928666  0.59636327
   0.91028351  0.67887033  0.59646284
   0.01356996  0.52716769  0.86306126
   0.51261252  0.52828986  0.86300274
   0.39540367  0.81228358  0.69581443
   0.89531552  0.81224862  0.69579270
   0.00084879  0.50455516  0.74864804
   0.50083318  0.50466928  0.74863362
   0.25763278  0.03386349  0.96182507
   0.75882613  0.03530425  0.96222311
   0.30278939  0.94526050  0.85005990
   0.80292331  0.94580202  0.84984507
   0.05028150  0.95106502  0.44581785
   0.54989615  0.94775632  0.44591642
   0.41100869  0.17928663  0.09636326
   0.91028351  0.17887030  0.09646283
   0.01356996  0.02716770  0.36306129
   0.51261252  0.02828986  0.36300277
   0.39540367  0.31228358  0.19581443
   0.89531552  0.31224862  0.19579270
   0.00084879  0.00455513  0.24864801
   0.50083318  0.00466925  0.24863359
   0.25763278  0.53386350  0.46182507
   0.75882613  0.53530425  0.46222311
   0.30278939  0.44526050  0.35005987
   0.80292331  0.44580202  0.34984504
   0.04983624  0.44830686  0.05445204
   0.55033721  0.45096332  0.05463237
   0.41235356  0.67734001  0.40281109
   0.91338819  0.67812228  0.40292356
   0.01259911  0.52620932  0.13697641
   0.51314176  0.52548887  0.13694158
   0.39686468  0.81395239  0.30453338
   0.89700944  0.81396858  0.30451694
   0.00079982  0.50504676  0.25103747
   0.50072969  0.50492570  0.25102090
   0.25854080  0.03692539  0.03903198
   0.75796608  0.03564285  0.03930304
   0.30313728  0.94444581  0.15006219
   0.80313109  0.94428487  0.14990865
   0.04983624  0.94830683  0.55445202
   0.55033721  0.95096329  0.55463235
   0.41235356  0.17734001  0.90281112
   0.91338819  0.17812228  0.90292359
   0.01259911  0.02620933  0.63697640
   0.51314176  0.02548887  0.63694157
   0.39686468  0.31395242  0.80453341
   0.89700944  0.31396861  0.80451697
   0.00079982  0.00504676  0.75103747
   0.50072969  0.00492570  0.75102090
   0.25854080  0.53692542  0.53903197
   0.75796608  0.53564288  0.53930302
   0.30313728  0.44444578  0.65006216
   0.80313109  0.44428484  0.64990862
   0.30020729  0.55319689  0.94607251
   0.80190402  0.55351350  0.94609375
   0.16287490  0.32199052  0.59693025
   0.66206855  0.32097435  0.59657999
   0.26285014  0.47418820  0.86295237
   0.76322008  0.47420989  0.86283709
   0.14661706  0.18650399  0.69546032
   0.64650109  0.18630299  0.69581725
   0.25080584  0.49534459  0.74872787
   0.75081536  0.49523430  0.74868086
   0.00887903  0.96288378  0.96143335
   0.50742593  0.96396215  0.96198921
   0.05339018  0.05525041  0.84986731
   0.55274429  0.05517253  0.84969084
   0.30020729  0.05319687  0.44607248
   0.80190402  0.05351348  0.44609372
   0.16287490  0.82199052  0.09693027
   0.66206855  0.82097435  0.09658001
   0.26285014  0.97418820  0.36295237
   0.76322008  0.97420989  0.36283709
   0.14661706  0.68650400  0.19546034
   0.64650109  0.68630300  0.19581727
   0.25080584  0.99534358  0.24872788
   0.75081536  0.99523328  0.24868088
   0.00887903  0.46288381  0.46143332
   0.50742593  0.46396218  0.46198918
   0.05339018  0.55525039  0.34986728
   0.55274429  0.55517251  0.34969081
   0.16113612  0.16498970  0.50013376
   0.66124551  0.16530921  0.50089069
   0.16113612  0.66499070  1.00013373
   0.66124551  0.66531021  1.00089066
   0.41110414  0.83483371  0.50059945
   0.91136945  0.83444432  0.50053865
   0.41110414  0.33483472  0.00059943
   0.91136945  0.33444534  0.00053863
   0.39646032  0.75240297  0.45035812
   0.89295501  0.75361896  0.45035051
   0.39646032  0.25240297  0.95035809
   0.89295501  0.25361896  0.95035048
   0.14436765  0.24694155  0.54917435
   0.14436765  0.74694155  0.04917433
   0.64518643  0.24629339  0.45042409
   0.64518643  0.74629339  0.95042406
BiTiFeO                                 
           1
    11.002753    0.000054   -0.002853
     0.000028    5.490180   -0.000908
    -0.010516    0.032486   40.703022
   Bi   Ti   O    Fe
  40  24 120   8
Direct configuration=     4
   0.12559440  0.24669372  0.10280133
   0.62509964  0.24820561  0.10334335
   0.11843343  0.27344684  0.21935225
   0.61841076  0.27326861  0.21939810
   0.12559440  0.74669374  0.60280133
   0.62509964  0.74820563  0.60334334
   0.11843343  0.77344681  0.71935226
   0.61841076  0.77326858  0.71939812
   0.37675931  0.75290242  0.89701767
   0.87271877  0.75254362  0.89756913
   0.36799390  0.72557596  0.78096744
   0.86733909  0.72546770  0.78104918
   0.37675931  0.25290245  0.39701767
   0.87271877  0.25254365  0.39756913
   0.36799390  0.22557593  0.28096744
   0.86733909  0.22546767  0.28104918
   0.37214392  0.75189481  0.10287781
   0.87542355  0.75147302  0.10322161
   0.36739841  0.72736900  0.21925479
   0.86757399  0.72749572  0.21930018
   0.37214392  0.25189481  0.60287779
   0.87542355  0.25147302  0.60322159
   0.36739841  0.22736900  0.71925481
   0.86757399  0.22749572  0.71930020
   0.12267053  0.24882734  0.89686069
   0.62327768  0.24777402  0.89777353
   0.11662233  0.27338769  0.78107266
   0.61676135  0.27387399  0.78116120
   0.12267053  0.74882733  0.39686066
   0.62327768  0.74777400  0.39777350
   0.11662233  0.77338769  0.28107266
   0.61676135  0.77387399  0.28116120
   0.12377498  0.24035525 -0.00048070
   0.62369823  0.23931448 -0.00269888
   0.12377498  0.74035522  0.49951928
   0.62369823  0.73931445  0.49730111
   0.37434253  0.76031009  0.99842449
   0.87318084  0.76008009  0.99786112
   0.37434253  0.26031006  0.49842446
   0.87318084  0.26008006  0.49786109
   0.14746494  0.25043171  0.34807688
   0.64763618  0.25181865  0.34818839
   0.14746494  0.75043174  0.84807688
   0.64763618  0.75181868  0.84818839
   0.39735614  0.74974907  0.34842686
   0.89697830  0.74973249  0.34843532
   0.39735614  0.24974909  0.84842683
   0.89697830  0.24973251  0.84843529
   0.39729370  0.74948762  0.65209039
   0.89771772  0.74949719  0.65209619
   0.39729370  0.24948765  0.15209039
   0.89771772  0.24949722  0.15209619
   0.14725309  0.25012670  0.65168647
   0.64712499  0.24912032  0.65192389
   0.14725309  0.75012673  0.15168644
   0.64712499  0.74912035  0.15192386
   0.14606506  0.24570866  0.45109062
   0.14606506  0.74570866  0.95109059
   0.39461702  0.75517726  0.54867051
   0.89733719  0.75254506  0.54866956
   0.39461702  0.25517726  0.04867049
   0.89733719  0.25254506  0.04866954
   0.64580568  0.24651282  0.54879890
   0.64580568  0.74651282  0.04879888
   0.29931557  0.54785215  0.05479868
   0.79930073  0.54732313  0.05489634
   0.16048119  0.32081897  0.40351619
   0.66139922  0.32262185  0.40297246
   0.26315235  0.47213949  0.13687014
   0.76310748  0.47265990  0.13681705
   0.14558722  0.18741087  0.30427355
   0.64577829  0.18702907  0.30445125
   0.25072541  0.49497400  0.25124421
   0.75082792  0.49501397  0.25123074
   0.00814500  0.96654361  0.03866135
   0.50842202  0.96435091  0.03912147
   0.05254573  0.05467734  0.14982936
   0.55297904  0.05441945  0.14977895
   0.29931557  0.04785217  0.55479871
   0.79930073  0.04732314  0.55489637
   0.16048119  0.82081894  0.90351619
   0.66139922  0.82262182  0.90297246
   0.26315235  0.97213949  0.63687016
   0.76310748  0.97265990  0.63681707
   0.14558722  0.68740986  0.80427355
   0.64577829  0.68702806  0.80445125
   0.25072541  0.99497397  0.75124418
   0.75082792  0.99501394  0.75123071
   0.00814500  0.46654361  0.53866136
   0.50842202  0.46435091  0.53912148
   0.05254573  0.55467735  0.64982933
   0.55297904  0.55441946  0.64977892
   0.05023734  0.45071218  0.94588931
   0.55059916  0.44705048  0.94606746
   0.41098335  0.67930341  0.59645934
   0.91042453  0.67878539  0.59657508
   0.01351012  0.52708519  0.86310619
   0.51265810  0.52843406  0.86306850
   0.39541178  0.81175935  0.69547633
   0.89532604  0.81170483  0.69547395
   0.00083497  0.50450332  0.74877164
   0.50075446  0.50445505  0.74878717
   0.25790471  0.03407616  0.96175813
   0.75870370  0.03475272  0.96212062
   0.30290084  0.94500803  0.85012867
   0.80292035  0.94572645  0.84981808
   0.05023734  0.95071221  0.44588934
   0.55059916  0.94705051  0.44606749
   0.41098335  0.17930338  0.09645933
   0.91042453  0.17878536  0.09657507
   0.01351012  0.02708520  0.36310622
   0.51265810  0.02843407  0.36306853
   0.39541178  0.31175935  0.19547633
   0.89532604  0.31170483  0.19547395
   0.00083497  0.00450330  0.24877161
   0.50075446  0.00445503  0.24878714
   0.25790471  0.53407616  0.46175813
   0.75870370  0.53475273  0.46212062
   0.30290084  0.44500803  0.35012864
   0.80292035  0.44572645  0.34981805
   0.04975857  0.44854847  0.05454842
   0.54969589  0.45128937  0.05481283
   0.41259868  0.67727174  0.40285480
   0.91320309  0.67810618  0.40297443
   0.01256197  0.52621515  0.13698261
   0.51322261  0.52547092  0.13695214
   0.39690123  0.81405524  0.30452923
   0.89707873  0.81407366  0.30451961
   0.00085073  0.50514028  0.25116994
   0.50070352  0.50509426  0.25117915
   0.25840113  0.03713763  0.03902418
   0.75819906  0.03621429  0.03930501
   0.30319248  0.94482598  0.15006516
   0.80300466  0.94428117  0.14984118
   0.04975857  0.94854844  0.55454840
   0.54969589  0.95128934  0.55481281
   0.41259868  0.17727174  0.90285483
   0.91320309  0.17810618  0.90297446
   0.01256197  0.02621516  0.63698259
   0.51322261  0.02547093  0.63695213
   0.39690123  0.31405527  0.80452926
   0.89707873  0.31407369  0.80451964
   0.00085073  0.00514028  0.75116994
   0.50070352  0.00509426  0.75117915
   0.25840113  0.53713766  0.53902416
   0.75819906  0.53621432  0.53930499
   0.30319248  0.44482595  0.65006513
   0.80300466  0.44428114  0.64984115
   0.30070073  0.55300225  0.94614985
   0.80161999  0.55493379  0.94622453
   0.16275520  0.32206969  0.59696712
   0.66188933  0.32077882  0.59667726
   0.26299783  0.47422529  0.86299375
   0.76305254  0.47413870  0.86292238
   0.14656211  0.18678272  0.69529681
   0.64643454  0.18715882  0.69534295
   0.25075314  0.49549530  0.74885339
   0.75079488  0.49535981  0.74883186
   0.00888451  0.96328510  0.96133505
   0.50790380  0.96385471  0.96197977
   0.05344476  0.05535202  0.84987005
   0.55279191  0.05536419  0.84974395
   0.30070073  0.05300224  0.44614982
   0.80161999  0.05493378  0.44622450
   0.16275520  0.82206969  0.09696714
   0.66188933  0.82077882  0.09667729
   0.26299783  0.97422529  0.36299375
   0.76305254  0.97413870  0.36292238
   0.14656211  0.68678273  0.19529683
   0.64643454  0.68715884  0.19534297
   0.25075314  0.99549428  0.24885341
   0.75079488  0.99535880  0.24883188
   0.00888451  0.46328513  0.46133502
   0.50790380  0.46385474  0.46197974
   0.05344476  0.55535200  0.34987002
   0.55279191  0.55536417  0.34974392
   0.16108819  0.16504156  0.49996668
   0.66127723  0.16545610  0.50060797
   0.16108819  0.66504256  0.99996665
   0.66127723  0.66545709  1.00060794
   0.41105257  0.83485492  0.50045012
   0.91141088  0.83436840  0.50038508
   0.41105257  0.33485593  0.00045010
   0.91141088  0.33436941  0.00038507
   0.39550749  0.75219451  0.45042072
   0.89370069  0.75362902  0.45039050
   0.39550749  0.25219451  0.95042069
   0.89370069  0.25362902  0.95039047