BiTiFeO                                 
           1
    10.994186    0.000000    0.000000
     0.000000    5.486399   -0.000302
     0.000000    0.036936   40.680767
   Bi   Ti   O    Fe
  40  24 120   8
Direct configuration=     1
   0.12540530  0.24701248  0.10288376
   0.62540531  0.24701248  0.10288376
   0.11819539  0.27398101  0.21917318
   0.61819542  0.27398101  0.21917318
   0.12540530  0.74701250  0.60288376
   0.62540531  0.74701250  0.60288376
   0.11819539  0.77398103  0.71917313
   0.61819542  0.77398103  0.71917313
   0.37540528  0.75298750  0.89711624
   0.87540531  0.75298750  0.89711624
   0.36819535  0.72601897  0.78082687
   0.86819535  0.72601897  0.78082687
   0.37540528  0.25298753  0.39711624
   0.87540531  0.25298753  0.39711624
   0.36819535  0.22601898  0.28082681
   0.86819535  0.22601898  0.28082681
   0.37283450  0.75149101  0.10287371
   0.87283450  0.75149101  0.10287371
   0.36714268  0.72705805  0.21907356
   0.86714268  0.72705805  0.21907356
   0.37283450  0.25149104  0.60287374
   0.87283450  0.25149104  0.60287374
   0.36714268  0.22705802  0.71907359
   0.86714268  0.22705802  0.71907359
   0.12283452  0.24850896  0.89712626
   0.62283450  0.24850896  0.89712626
   0.11714268  0.27294198  0.78092641
   0.61714268  0.27294198  0.78092641
   0.12283452  0.74850899  0.39712632
   0.62283450  0.74850899  0.39712632
   0.11714268  0.77294195  0.28092644
   0.61714268  0.77294195  0.28092644
   0.12377319  0.23978169  0.00014733
   0.62377322  0.23978169  0.00014733
   0.12377319  0.73978168  0.50014734
   0.62377322  0.73978168  0.50014734
   0.37377319  0.76021832  0.99985266
   0.87377322  0.76021832  0.99985266
   0.37377319  0.26021829  0.49985263
   0.87377322  0.26021829  0.49985263
   0.14763583  0.25081903  0.34803680
   0.64763582  0.25081903  0.34803680
   0.14763583  0.75081903  0.84803683
   0.64763582  0.75081903  0.84803683
   0.39703161  0.74994487  0.34845242
   0.89703161  0.74994487  0.34845242
   0.39703161  0.24994487  0.84845239
   0.89703161  0.24994487  0.84845239
   0.39763582  0.74918097  0.65196317
   0.89763582  0.74918097  0.65196317
   0.39763582  0.24918097  0.15196319
   0.89763582  0.24918097  0.15196319
   0.14703162  0.25005513  0.65154761
   0.64703161  0.25005513  0.65154761
   0.14703162  0.75005513  0.15154760
   0.64703161  0.75005513  0.15154760
   0.14618449  0.24574544  0.45122007
   0.64618450  0.24574544  0.45122007
   0.14618449  0.74574542  0.95122009
   0.64618450  0.74574542  0.95122009
   0.39618450  0.75425458  0.54877991
   0.89618450  0.75425458  0.54877991
   0.39618450  0.25425458  0.04877993
   0.89618450  0.25425458  0.04877993
   0.29979950  0.54837269  0.05445434
   0.79979950  0.54837269  0.05445434
   0.16044830  0.32101330  0.40345281
   0.66044831  0.32101330  0.40345281
   0.26315659  0.47216564  0.13687402
   0.76315659  0.47216564  0.13687402
   0.14546947  0.18768853  0.30430764
   0.64546949  0.18768853  0.30430764
   0.25084117  0.49525765  0.25120112
   0.75084114  0.49525765  0.25120112
   0.00810101  0.96618187  0.03841940
   0.50810099  0.96618187  0.03841940
   0.05275767  0.05470406  0.14992821
   0.55275768  0.05470406  0.14992821
   0.29979950  0.04837268  0.55445433
   0.79979950  0.04837268  0.55445433
   0.16044830  0.82101327  0.90345281
   0.66044831  0.82101327  0.90345281
   0.26315659  0.97216570  0.63687402
   0.76315659  0.97216570  0.63687402
   0.14546947  0.68768847  0.80430764
   0.64546949  0.68768847  0.80430764
   0.25084117  0.99525768  0.75120115
   0.75084114  0.99525768  0.75120115
   0.00810101  0.46618190  0.53841937
   0.50810099  0.46618190  0.53841937
   0.05275767  0.55470413  0.64992821
   0.55275768  0.55470413  0.64992821
   0.04979951  0.45162731  0.94554567
   0.54979950  0.45162731  0.94554567
   0.41044831  0.67898673  0.59654719
   0.91044831  0.67898673  0.59654719
   0.01315657  0.52783430  0.86312598
   0.51315659  0.52783430  0.86312598
   0.39546949  0.81231153  0.69569236
   0.89546949  0.81231153  0.69569236
   0.00084119  0.50474232  0.74879885
   0.50084120  0.50474232  0.74879885
   0.25810102  0.03381810  0.96158063
   0.75810099  0.03381810  0.96158063
   0.30275768  0.94529587  0.85007179
   0.80275768  0.94529587  0.85007179
   0.04979951  0.95162731  0.44554564
   0.54979950  0.95162731  0.44554564
   0.41044831  0.17898671  0.09654719
   0.91044831  0.17898671  0.09654719
   0.01315657  0.02783434  0.36312598
   0.51315659  0.02783434  0.36312598
   0.39546949  0.31231150  0.19569236
   0.89546949  0.31231150  0.19569236
   0.00084119  0.00474235  0.24879886
   0.50084120  0.00474235  0.24879886
   0.25810102  0.53381813  0.46158057
   0.75810099  0.53381813  0.46158057
   0.30275768  0.44529596  0.35007179
   0.80275768  0.44529596  0.35007179
   0.05030364  0.44731984  0.05424412
   0.55030364  0.44731984  0.05424412
   0.41297290  0.67787600  0.40299320
   0.91297293  0.67787600  0.40299320
   0.01283030  0.52564299  0.13704249
   0.51283032  0.52564299  0.13704249
   0.39678118  0.81359410  0.30457029
   0.89678121  0.81359410  0.30457029
   0.00084714  0.50478452  0.25114122
   0.50084716  0.50478452  0.25114122
   0.25856170  0.03727631  0.03879391
   0.75856173  0.03727631  0.03879391
   0.30316552  0.94468838  0.15010312
   0.80316555  0.94468838  0.15010312
   0.05030364  0.94731981  0.55424416
   0.55030364  0.94731981  0.55424416
   0.41297290  0.17787600  0.90299320
   0.91297293  0.17787600  0.90299320
   0.01283030  0.02564297  0.63704246
   0.51283032  0.02564297  0.63704246
   0.39678118  0.31359413  0.80457026
   0.89678121  0.31359413  0.80457026
   0.00084714  0.00478451  0.75114119
   0.50084716  0.00478451  0.75114119
   0.25856170  0.53727633  0.53879386
   0.75856173  0.53727633  0.53879386
   0.30316552  0.44468841  0.65010315
   0.80316555  0.44468841  0.65010315
   0.30030364  0.55268019  0.94575584
   0.80030364  0.55268019  0.94575584
   0.16297288  0.32212403  0.59700680
   0.66297287  0.32212403  0.59700680
   0.26283029  0.47435704  0.86295754
   0.76283026  0.47435704  0.86295754
   0.14678118  0.18640590  0.69542974
   0.64678121  0.18640590  0.69542974
   0.25084716  0.49521550  0.74885881
   0.75084716  0.49521550  0.74885881
   0.00856171  0.96272367  0.96120614
   0.50856173  0.96272367  0.96120614
   0.05316552  0.05531158  0.84989685
   0.55316550  0.05531158  0.84989685
   0.30030364  0.05268016  0.44575590
   0.80030364  0.05268016  0.44575590
   0.16297288  0.82212400  0.09700680
   0.66297287  0.82212400  0.09700680
   0.26283029  0.97435701  0.36295751
   0.76283026  0.97435701  0.36295751
   0.14678118  0.68640590  0.19542970
   0.64678121  0.68640590  0.19542970
   0.25084716  0.99521548  0.24885877
   0.75084716  0.99521548  0.24885877
   0.00856171  0.46272370  0.46120611
   0.50856173  0.46272370  0.46120611
   0.05316552  0.55531162  0.34989691
   0.55316550  0.55531162  0.34989691
   0.16131252  0.16511445  0.49987274
   0.66131252  0.16511445  0.49987274
   0.16131252  0.66511452  0.99987274
   0.66131252  0.66511452  0.99987274
   0.41131252  0.83488548  0.50012726
   0.91131252  0.83488548  0.50012726
   0.41131252  0.33488554  0.00012723
   0.91131252  0.33488554  0.00012723
   0.39444831  0.75291270  0.45061907
   0.89444828  0.75291270  0.45061907
   0.39444831  0.25291270  0.95061904
   0.89444828  0.25291270  0.95061904
   0.14444831  0.24708730  0.54938096
   0.64444828  0.24708730  0.54938096
   0.14444831  0.74708730  0.04938094
   0.64444828  0.74708730  0.04938094
BiTiFeO                                 
           1
    11.002186    0.000000    0.000000
     0.000000    5.490431   -0.000328
     0.000000    0.036782   40.704472
   Bi   Ti   O    Fe
  40  24 120   8
Direct configuration=     2
   0.12540832  0.24701423  0.10287737
   0.62540833  0.24701423  0.10287737
   0.11814985  0.27399330  0.21917241
   0.61814987  0.27399330  0.21917241
   0.12540832  0.74701425  0.60287736
   0.62540833  0.74701425  0.60287736
   0.11814985  0.77399333  0.71917237
   0.61814987  0.77399333  0.71917237
   0.37540830  0.75298575  0.89712264
   0.87540833  0.75298575  0.89712264
   0.36814981  0.72600667  0.78082763
   0.86814981  0.72600667  0.78082763
   0.37540830  0.25298578  0.39712264
   0.87540833  0.25298578  0.39712264
   0.36814981  0.22600668  0.28082757
   0.86814981  0.22600668  0.28082757
   0.37283952  0.75149328  0.10286733
   0.87283952  0.75149328  0.10286733
   0.36709601  0.72704652  0.21907244
   0.86709601  0.72704652  0.21907244
   0.37283952  0.25149331  0.60286737
   0.87283952  0.25149331  0.60286737
   0.36709601  0.22704649  0.71907247
   0.86709601  0.22704649  0.71907247
   0.12283953  0.24850669  0.89713263
   0.62283952  0.24850669  0.89713263
   0.11709601  0.27295351  0.78092753
   0.61709601  0.27295351  0.78092753
   0.12283953  0.74850672  0.39713269
   0.62283952  0.74850672  0.39713269
   0.11709601  0.77295348  0.28092756
   0.61709601  0.77295348  0.28092756
   0.12377756  0.23977818  0.00014715
   0.62377758  0.23977818  0.00014715
   0.12377756  0.73977816  0.50014717
   0.62377758  0.73977816  0.50014717
   0.37377755  0.76022184  0.99985283
   0.87377758  0.76022184  0.99985283
   0.37377755  0.26022181  0.49985281
   0.87377758  0.26022181  0.49985281
   0.14764326  0.25082831  0.34805219
   0.64764325  0.25082831  0.34805219
   0.14764326  0.75082831  0.84805222
   0.64764325  0.75082831  0.84805222
   0.39703955  0.74994121  0.34846887
   0.89703955  0.74994121  0.34846887
   0.39703955  0.24994121  0.84846884
   0.89703955  0.24994121  0.84846884
   0.39764325  0.74917169  0.65194778
   0.89764325  0.74917169  0.65194778
   0.39764325  0.24917169  0.15194779
   0.89764325  0.24917169  0.15194779
   0.14703956  0.25005879  0.65153116
   0.64703955  0.25005879  0.65153116
   0.14703956  0.75005879  0.15153114
   0.64703955  0.75005879  0.15153114
   0.14619351  0.24575306  0.45122169
   0.64619352  0.24575306  0.45122169
   0.14619351  0.74575304  0.95122172
   0.64619352  0.74575304  0.95122172
   0.39619352  0.75424696  0.54877828
   0.89619352  0.75424696  0.54877828
   0.39619352  0.25424696  0.04877830
   0.89619352  0.25424696  0.04877830
   0.29979675  0.54836782  0.05444563
   0.79979675  0.54836782  0.05444563
   0.16044914  0.32103379  0.40345392
   0.66044916  0.32103379  0.40345392
   0.26317384  0.47214459  0.13687538
   0.76317384  0.47214459  0.13687538
   0.14547265  0.18764259  0.30430983
   0.64547266  0.18764259  0.30430983
   0.25081118  0.49523385  0.25121414
   0.75081115  0.49523385  0.25121414
   0.00812355  0.96616975  0.03842080
   0.50812353  0.96616975  0.03842080
   0.05276924  0.05469422  0.14991795
   0.55276924  0.05469422  0.14991795
   0.29979675  0.04836781  0.55444562
   0.79979675  0.04836781  0.55444562
   0.16044914  0.82103376  0.90345392
   0.66044916  0.82103376  0.90345392
   0.26317384  0.97214465  0.63687538
   0.76317384  0.97214465  0.63687538
   0.14547265  0.68764253  0.80430983
   0.64547266  0.68764253  0.80430983
   0.25081118  0.99523388  0.75121417
   0.75081115  0.99523388  0.75121417
   0.00812355  0.46616978  0.53842077
   0.50812353  0.46616978  0.53842077
   0.05276924  0.55469429  0.64991795
   0.55276924  0.55469429  0.64991795
   0.04979676  0.45163218  0.94555438
   0.54979675  0.45163218  0.94555438
   0.41044916  0.67896624  0.59654608
   0.91044916  0.67896624  0.59654608
   0.01317381  0.52785535  0.86312462
   0.51317384  0.52785535  0.86312462
   0.39547266  0.81235747  0.69569017
   0.89547266  0.81235747  0.69569017
   0.00081120  0.50476612  0.74878583
   0.50081121  0.50476612  0.74878583
   0.25812356  0.03383022  0.96157923
   0.75812353  0.03383022  0.96157923
   0.30276924  0.94530571  0.85008205
   0.80276924  0.94530571  0.85008205
   0.04979676  0.95163218  0.44555436
   0.54979675  0.95163218  0.44555436
   0.41044916  0.17896622  0.09654608
   0.91044916  0.17896622  0.09654608
   0.01317381  0.02785539  0.36312462
   0.51317384  0.02785539  0.36312462
   0.39547266  0.31235744  0.19569017
   0.89547266  0.31235744  0.19569017
   0.00081120  0.00476615  0.24878585
   0.50081121  0.00476615  0.24878585
   0.25812356  0.53383025  0.46157917
   0.75812353  0.53383025  0.46157917
   0.30276924  0.44530580  0.35008205
   0.80276924  0.44530580  0.35008205
   0.05032425  0.44737521  0.05423215
   0.55032425  0.44737521  0.05423215
   0.41296936  0.67786382  0.40299863
   0.91296939  0.67786382  0.40299863
   0.01284993  0.52565878  0.13704316
   0.51284994  0.52565878  0.13704316
   0.39678347  0.81363981  0.30457258
   0.89678350  0.81363981  0.30457258
   0.00081793  0.50480727  0.25115329
   0.50081795  0.50480727  0.25115329
   0.25856787  0.03724197  0.03879067
   0.75856790  0.03724197  0.03879067
   0.30318010  0.94469717  0.15009646
   0.80318013  0.94469717  0.15009646
   0.05032425  0.94737518  0.55423219
   0.55032425  0.94737518  0.55423219
   0.41296936  0.17786382  0.90299863
   0.91296939  0.17786382  0.90299863
   0.01284993  0.02565876  0.63704313
   0.51284994  0.02565876  0.63704313
   0.39678347  0.31363984  0.80457255
   0.89678350  0.31363984  0.80457255
   0.00081793  0.00480726  0.75115326
   0.50081795  0.00480726  0.75115326
   0.25856787  0.53724199  0.53879062
   0.75856790  0.53724199  0.53879062
   0.30318010  0.44469720  0.65009649
   0.80318013  0.44469720  0.65009649
   0.30032425  0.55262482  0.94576781
   0.80032425  0.55262482  0.94576781
   0.16296934  0.32213621  0.59700137
   0.66296933  0.32213621  0.59700137
   0.26284991  0.47434125  0.86295687
   0.76284988  0.47434125  0.86295687
   0.14678347  0.18636019  0.69542745
   0.64678350  0.18636019  0.69542745
   0.25081795  0.49519275  0.74884674
   0.75081795  0.49519275  0.74884674
   0.00856788  0.96275801  0.96120938
   0.50856790  0.96275801  0.96120938
   0.05318009  0.05530279  0.84990351
   0.55318007  0.05530279  0.84990351
   0.30032425  0.05262479  0.44576787
   0.80032425  0.05262479  0.44576787
   0.16296934  0.82213618  0.09700137
   0.66296933  0.82213618  0.09700137
   0.26284991  0.97434122  0.36295684
   0.76284988  0.97434122  0.36295684
   0.14678347  0.68636019  0.19542740
   0.64678350  0.68636019  0.19542740
   0.25081795  0.99519273  0.24884669
   0.75081795  0.99519273  0.24884669
   0.00856788  0.46275804  0.46120935
   0.50856790  0.46275804  0.46120935
   0.05318009  0.55530283  0.34990357
   0.55318007  0.55530283  0.34990357
   0.16131472  0.16510370  0.49987498
   0.66131472  0.16510370  0.49987498
   0.16131472  0.66510377  0.99987498
   0.66131472  0.66510377  0.99987498
   0.41131472  0.83489623  0.50012502
   0.91131472  0.83489623  0.50012502
   0.41131472  0.33489629  0.00012499
   0.91131472  0.33489629  0.00012499
   0.39444838  0.75292203  0.45062022
   0.89444835  0.75292203  0.45062022
   0.39444838  0.25292203  0.95062019
   0.89444835  0.25292203  0.95062019
   0.14444838  0.24707797  0.54937981
   0.64444835  0.24707797  0.54937981
   0.14444838  0.74707797  0.04937979
   0.64444835  0.74707797  0.04937979
BiTiFeO                                 
           1
    11.002888    0.000000    0.000000
     0.000000    5.490639   -0.000366
     0.000000    0.036510   40.693608
   Bi   Ti   O    Fe
  40  24 120   8
Direct configuration=     3
   0.12545763  0.24703736  0.10286501
   0.62545764  0.24703736  0.10286501
   0.11815065  0.27392869  0.21914897
   0.61815067  0.27392869  0.21914897
   0.12545763  0.74703737  0.60286500
   0.62545764  0.74703737  0.60286500
   0.11815065  0.77392872  0.71914892
   0.61815067  0.77392872  0.71914892
   0.37545761  0.75296263  0.89713500
   0.87545764  0.75296263  0.89713500
   0.36815061  0.72607128  0.78085108
   0.86815061  0.72607128  0.78085108
   0.37545761  0.25296266  0.39713500
   0.87545764  0.25296266  0.39713500
   0.36815061  0.22607130  0.28085102
   0.86815061  0.22607130  0.28085102
   0.37289564  0.75147143  0.10285556
   0.87289564  0.75147143  0.10285556
   0.36709833  0.72710423  0.21904929
   0.86709833  0.72710423  0.21904929
   0.37289564  0.25147146  0.60285560
   0.87289564  0.25147146  0.60285560
   0.36709833  0.22710420  0.71904932
   0.86709833  0.22710420  0.71904932
   0.12289565  0.24852854  0.89714440
   0.62289564  0.24852854  0.89714440
   0.11709833  0.27289580  0.78095068
   0.61709833  0.27289580  0.78095068
   0.12289565  0.74852857  0.39714446
   0.62289564  0.74852857  0.39714446
   0.11709833  0.77289577  0.28095071
   0.61709833  0.77289577  0.28095071
   0.12379673  0.23977558  0.00014673
   0.62379675  0.23977558  0.00014673
   0.12379673  0.73977556  0.50014675
   0.62379675  0.73977556  0.50014675
   0.37379672  0.76022444  0.99985325
   0.87379675  0.76022444  0.99985325
   0.37379672  0.26022441  0.49985322
   0.87379675  0.26022441  0.49985322
   0.14764769  0.25083999  0.34806891
   0.64764767  0.25083999  0.34806891
   0.14764769  0.75083999  0.84806894
   0.64764767  0.75083999  0.84806894
   0.39704290  0.74993107  0.34848375
   0.89704290  0.74993107  0.34848375
   0.39704290  0.24993107  0.84848372
   0.89704290  0.24993107  0.84848372
   0.39764767  0.74916001  0.65193106
   0.89764767  0.74916001  0.65193106
   0.39764767  0.24916001  0.15193108
   0.89764767  0.24916001  0.15193108
   0.14704291  0.25006893  0.65151628
   0.64704290  0.25006893  0.65151628
   0.14704291  0.75006893  0.15151627
   0.64704290  0.75006893  0.15151627
   0.14619328  0.24577543  0.45122472
   0.64619329  0.24577543  0.45122472
   0.14619328  0.74577542  0.95122475
   0.64619329  0.74577542  0.95122475
   0.39619329  0.75422458  0.54877525
   0.89619329  0.75422458  0.54877525
   0.39619329  0.25422458  0.04877528
   0.89619329  0.25422458  0.04877528
   0.29977451  0.54839543  0.05444101
   0.79977451  0.54839543  0.05444101
   0.16043991  0.32100929  0.40344316
   0.66043992  0.32100929  0.40344316
   0.26317128  0.47212836  0.13687577
   0.76317128  0.47212836  0.13687577
   0.14546461  0.18762464  0.30428432
   0.64546463  0.18762464  0.30428432
   0.25078537  0.49523138  0.25122353
   0.75078534  0.49523138  0.25122353
   0.00813011  0.96615247  0.03842501
   0.50813009  0.96615247  0.03842501
   0.05276841  0.05471373  0.14992028
   0.55276841  0.05471373  0.14992028
   0.29977451  0.04839542  0.55444100
   0.79977451  0.04839542  0.55444100
   0.16043991  0.82100926  0.90344316
   0.66043992  0.82100926  0.90344316
   0.26317128  0.97212842  0.63687577
   0.76317128  0.97212842  0.63687577
   0.14546461  0.68762458  0.80428432
   0.64546463  0.68762458  0.80428432
   0.25078537  0.99523141  0.75122356
   0.75078534  0.99523141  0.75122356
   0.00813011  0.46615250  0.53842498
   0.50813009  0.46615250  0.53842498
   0.05276841  0.55471380  0.64992028
   0.55276841  0.55471380  0.64992028
   0.04977452  0.45160457  0.94555900
   0.54977451  0.45160457  0.94555900
   0.41043992  0.67899074  0.59655684
   0.91043992  0.67899074  0.59655684
   0.01317126  0.52787158  0.86312423
   0.51317128  0.52787158  0.86312423
   0.39546463  0.81237542  0.69571568
   0.89546463  0.81237542  0.69571568
   0.00078539  0.50476859  0.74877644
   0.50078540  0.50476859  0.74877644
   0.25813012  0.03384750  0.96157502
   0.75813009  0.03384750  0.96157502
   0.30276841  0.94528620  0.85007972
   0.80276841  0.94528620  0.85007972
   0.04977452  0.95160457  0.44555897
   0.54977451  0.95160457  0.44555897
   0.41043992  0.17899072  0.09655684
   0.91043992  0.17899072  0.09655684
   0.01317126  0.02787162  0.36312423
   0.51317128  0.02787162  0.36312423
   0.39546463  0.31237539  0.19571568
   0.89546463  0.31237539  0.19571568
   0.00078539  0.00476861  0.24877646
   0.50078540  0.00476861  0.24877646
   0.25813012  0.53384753  0.46157497
   0.75813009  0.53384753  0.46157497
   0.30276841  0.44528629  0.35007972
   0.80276841  0.44528629  0.35007972
   0.05032154  0.44739601  0.05422706
   0.55032154  0.44739601  0.05422706
   0.41295627  0.67789639  0.40299495
   0.91295630  0.67789639  0.40299495
   0.01284585  0.52567189  0.13704275
   0.51284587  0.52567189  0.13704275
   0.39677559  0.81365434  0.30454844
   0.89677562  0.81365434  0.30454844
   0.00078964  0.50481113  0.25116186
   0.50078966  0.50481113  0.25116186
   0.25855919  0.03720940  0.03879266
   0.75855922  0.03720940  0.03879266
   0.30317975  0.94467791  0.15010064
   0.80317978  0.94467791  0.15010064
   0.05032154  0.94739598  0.55422710
   0.55032154  0.94739598  0.55422710
   0.41295627  0.17789639  0.90299495
   0.91295630  0.17789639  0.90299495
   0.01284585  0.02567187  0.63704272
   0.51284587  0.02567187  0.63704272
   0.39677559  0.31365437  0.80454841
   0.89677562  0.31365437  0.80454841
   0.00078964  0.00481112  0.75116183
   0.50078966  0.00481112  0.75116183
   0.25855919  0.53720942  0.53879261
   0.75855922  0.53720942  0.53879261
   0.30317975  0.44467794  0.65010067
   0.80317978  0.44467794  0.65010067
   0.30032154  0.55260402  0.94577290
   0.80032154  0.55260402  0.94577290
   0.16295626  0.32210364  0.59700505
   0.66295624  0.32210364  0.59700505
   0.26284584  0.47432814  0.86295728
   0.76284581  0.47432814  0.86295728
   0.14677559  0.18634566  0.69545159
   0.64677562  0.18634566  0.69545159
   0.25078966  0.49518890  0.74883817
   0.75078966  0.49518890  0.74883817
   0.00855921  0.96279058  0.96120739
   0.50855922  0.96279058  0.96120739
   0.05317974  0.05532205  0.84989933
   0.55317972  0.05532205  0.84989933
   0.30032154  0.05260399  0.44577296
   0.80032154  0.05260399  0.44577296
   0.16295626  0.82210361  0.09700505
   0.66295624  0.82210361  0.09700505
   0.26284584  0.97432811  0.36295725
   0.76284581  0.97432811  0.36295725
   0.14677559  0.68634566  0.19545155
   0.64677562  0.68634566  0.19545155
   0.25078966  0.99518887  0.24883812
   0.75078966  0.99518887  0.24883812
   0.00855921  0.46279061  0.46120736
   0.50855922  0.46279061  0.46120736
   0.05317974  0.55532209  0.34989939
   0.55317972  0.55532209  0.34989939
   0.16130540  0.16512517  0.49988093
   0.66130540  0.16512517  0.49988093
   0.16130540  0.66512524  0.99988093
   0.66130540  0.66512524  0.99988093
   0.41130540  0.83487476  0.50011907
   0.91130540  0.83487476  0.50011907
   0.41130540  0.33487482  0.00011905
   0.91130540  0.33487482  0.00011905
   0.39444965  0.75290854  0.45062339
   0.89444962  0.75290854  0.45062339
   0.39444965  0.25290854  0.95062336
   0.89444962  0.25290854  0.95062336
   0.14444965  0.24709146  0.54937664
   0.64444962  0.24709146  0.54937664
   0.14444965  0.74709146  0.04937662
   0.64444962  0.74709146  0.04937662
BiTiFeO                                 
           1
    10.998950    0.000000    0.000000
     0.000000    5.488612   -0.000387
     0.000000    0.036349   40.680548
   Bi   Ti   O    Fe
  40  24 120   8
Direct configuration=     4
   0.12549031  0.24705253  0.10286336
   0.62549032  0.24705253  0.10286336
   0.11812625  0.27390667  0.21914893
   0.61812628  0.27390667  0.21914893
   0.12549031  0.74705255  0.60286335
   0.62549032  0.74705255  0.60286335
   0.11812625  0.77390670  0.71914888
   0.61812628  0.77390670  0.71914888
   0.37549029  0.75294745  0.89713665
   0.87549032  0.75294745  0.89713665
   0.36812622  0.72609330  0.78085112
   0.86812622  0.72609330  0.78085112
   0.37549029  0.25294748  0.39713665
   0.87549032  0.25294748  0.39713665
   0.36812622  0.22609332  0.28085106
   0.86812622  0.22609332  0.28085106
   0.37292607  0.75145243  0.10285477
   0.87292607  0.75145243  0.10285477
   0.36707429  0.72711703  0.21904925
   0.86707429  0.72711703  0.21904925
   0.37292607  0.25145246  0.60285481
   0.87292607  0.25145246  0.60285481
   0.36707429  0.22711700  0.71904928
   0.86707429  0.22711700  0.71904928
   0.12292608  0.24854754  0.89714519
   0.62292607  0.24854754  0.89714519
   0.11707429  0.27288300  0.78095072
   0.61707429  0.27288300  0.78095072
   0.12292608  0.74854757  0.39714525
   0.62292607  0.74854757  0.39714525
   0.11707429  0.77288297  0.28095075
   0.61707429  0.77288297  0.28095075
   0.12380191  0.23978375  0.00014649
   0.62380193  0.23978375  0.00014649
   0.12380191  0.73978373  0.50014651
   0.62380193  0.73978373  0.50014651
   0.37380190  0.76021627  0.99985349
   0.87380193  0.76021627  0.99985349
   0.37380190  0.26021624  0.49985347
   0.87380193  0.26021624  0.49985347
   0.14765398  0.25083132  0.34804964
   0.64765397  0.25083132  0.34804964
   0.14765398  0.75083132  0.84804967
   0.64765397  0.75083132  0.84804967
   0.39705107  0.74993813  0.34846544
   0.89705107  0.74993813  0.34846544
   0.39705107  0.24993813  0.84846541
   0.89705107  0.24993813  0.84846541
   0.39765397  0.74916868  0.65195033
   0.89765397  0.74916868  0.65195033
   0.39765397  0.24916868  0.15195035
   0.89765397  0.24916868  0.15195035
   0.14705109  0.25006187  0.65153459
   0.64705107  0.25006187  0.65153459
   0.14705109  0.75006187  0.15153457
   0.64705107  0.75006187  0.15153457
   0.14619309  0.24577520  0.45122590
   0.64619311  0.24577520  0.45122590
   0.14619309  0.74577519  0.95122593
   0.64619311  0.74577519  0.95122593
   0.39619311  0.75422481  0.54877407
   0.89619311  0.75422481  0.54877407
   0.39619311  0.25422481  0.04877409
   0.89619311  0.25422481  0.04877409
   0.29977148  0.54837483  0.05443373
   0.79977148  0.54837483  0.05443373
   0.16043803  0.32098712  0.40344197
   0.66043805  0.32098712  0.40344197
   0.26317460  0.47211129  0.13686949
   0.76317460  0.47211129  0.13686949
   0.14546328  0.18765142  0.30430138
   0.64546330  0.18765142  0.30430138
   0.25076274  0.49522968  0.25123061
   0.75076271  0.49522968  0.25123061
   0.00813155  0.96615392  0.03842782
   0.50813153  0.96615392  0.03842782
   0.05277408  0.05472592  0.14991346
   0.55277409  0.05472592  0.14991346
   0.29977148  0.04837483  0.55443372
   0.79977148  0.04837483  0.55443372
   0.16043803  0.82098709  0.90344197
   0.66043805  0.82098709  0.90344197
   0.26317460  0.97211135  0.63686949
   0.76317460  0.97211135  0.63686949
   0.14546328  0.68765136  0.80430138
   0.64546330  0.68765136  0.80430138
   0.25076274  0.99522971  0.75123064
   0.75076271  0.99522971  0.75123064
   0.00813155  0.46615395  0.53842779
   0.50813153  0.46615395  0.53842779
   0.05277408  0.55472600  0.64991346
   0.55277409  0.55472600  0.64991346
   0.04977149  0.45162517  0.94556628
   0.54977148  0.45162517  0.94556628
   0.41043805  0.67901291  0.59655803
   0.91043805  0.67901291  0.59655803
   0.01317458  0.52788865  0.86313051
   0.51317460  0.52788865  0.86313051
   0.39546330  0.81234864  0.69569862
   0.89546330  0.81234864  0.69569862
   0.00076275  0.50477029  0.74876936
   0.50076276  0.50477029  0.74876936
   0.25813156  0.03384605  0.96157221
   0.75813153  0.03384605  0.96157221
   0.30277409  0.94527400  0.85008654
   0.80277409  0.94527400  0.85008654
   0.04977149  0.95162517  0.44556625
   0.54977148  0.95162517  0.44556625
   0.41043805  0.17901290  0.09655803
   0.91043805  0.17901290  0.09655803
   0.01317458  0.02788869  0.36313051
   0.51317460  0.02788869  0.36313051
   0.39546330  0.31234861  0.19569862
   0.89546330  0.31234861  0.19569862
   0.00076275  0.00477032  0.24876937
   0.50076276  0.00477032  0.24876937
   0.25813156  0.53384608  0.46157215
   0.75813153  0.53384608  0.46157215
   0.30277409  0.44527409  0.35008654
   0.80277409  0.44527409  0.35008654
   0.05030651  0.44740490  0.05421926
   0.55030651  0.44740490  0.05421926
   0.41295622  0.67791715  0.40299636
   0.91295625  0.67791715  0.40299636
   0.01284884  0.52568860  0.13703591
   0.51284885  0.52568860  0.13703591
   0.39677203  0.81362574  0.30456485
   0.89677206  0.81362574  0.30456485
   0.00076506  0.50481376  0.25116839
   0.50076508  0.50481376  0.25116839
   0.25857012  0.03720185  0.03879264
   0.75857015  0.03720185  0.03879264
   0.30318537  0.94466427  0.15009615
   0.80318540  0.94466427  0.15009615
   0.05030651  0.94740487  0.55421930
   0.55030651  0.94740487  0.55421930
   0.41295622  0.17791715  0.90299636
   0.91295625  0.17791715  0.90299636
   0.01284884  0.02568858  0.63703588
   0.51284885  0.02568858  0.63703588
   0.39677203  0.31362577  0.80456482
   0.89677206  0.31362577  0.80456482
   0.00076506  0.00481374  0.75116836
   0.50076508  0.00481374  0.75116836
   0.25857012  0.53720187  0.53879260
   0.75857015  0.53720187  0.53879260
   0.30318537  0.44466430  0.65009618
   0.80318540  0.44466430  0.65009618
   0.30030651  0.55259513  0.94578070
   0.80030651  0.55259513  0.94578070
   0.16295620  0.32208288  0.59700364
   0.66295619  0.32208288  0.59700364
   0.26284882  0.47431143  0.86296412
   0.76284879  0.47431143  0.86296412
   0.14677203  0.18637426  0.69543518
   0.64677206  0.18637426  0.69543518
   0.25076508  0.49518627  0.74883164
   0.75076508  0.49518627  0.74883164
   0.00857013  0.96279813  0.96120740
   0.50857015  0.96279813  0.96120740
   0.05318536  0.05533569  0.84990382
   0.55318534  0.05533569  0.84990382
   0.30030651  0.05259510  0.44578076
   0.80030651  0.05259510  0.44578076
   0.16295620  0.82208285  0.09700364
   0.66295619  0.82208285  0.09700364
   0.26284882  0.97431140  0.36296409
   0.76284879  0.97431140  0.36296409
   0.14677203  0.68637426  0.19543514
   0.64677206  0.68637426  0.19543514
   0.25076508  0.99518624  0.24883159
   0.75076508  0.99518624  0.24883159
   0.00857013  0.46279816  0.46120737
   0.50857015  0.46279816  0.46120737
   0.05318536  0.55533573  0.34990388
   0.55318534  0.55533573  0.34990388
   0.16130780  0.16514213  0.49988308
   0.66130780  0.16514213  0.49988308
   0.16130780  0.66514220  0.99988308
   0.66130780  0.66514220  0.99988308
   0.41130780  0.83485780  0.50011692
   0.91130780  0.83485780  0.50011692
   0.41130780  0.33485786  0.00011690
   0.91130780  0.33485786  0.00011690
   0.39445523  0.75290392  0.45062431
   0.89445520  0.75290392  0.45062431
   0.39445523  0.25290392  0.95062428
   0.89445520  0.25290392  0.95062428