BiTiFeO                                 
           1
    10.934106   -0.001327    0.000020
    -0.009423    5.465712   -0.000554
    -0.000210    0.012517   41.825281
   Bi   Ti   O    Fe
  40  24 120   8
Direct configuration=     1
   0.12814355  0.23486854  0.10791351
   0.62814355  0.23486854  0.10791351
   0.11596042  0.28908631  0.21962427
   0.61596042  0.28908631  0.21962427
   0.12814355  0.73486853  0.60791355
   0.62814355  0.73486853  0.60791355
   0.11596042  0.78908634  0.71962422
   0.61596042  0.78908634  0.71962422
   0.37509933  0.75967312  0.89246440
   0.87509930  0.75967312  0.89246440
   0.36429635  0.73801088  0.78028041
   0.86429632  0.73801088  0.78028041
   0.37509933  0.25967315  0.39246443
   0.87509930  0.25967315  0.39246443
   0.36429635  0.23801093  0.28028032
   0.86429632  0.23801093  0.28028032
   0.37510356  0.75956953  0.10753283
   0.87510359  0.75956953  0.10753283
   0.36429411  0.73817277  0.21972887
   0.86429411  0.73817277  0.21972887
   0.37510356  0.25956956  0.60753286
   0.87510359  0.25956956  0.60753286
   0.36429411  0.23817272  0.71972889
   0.86429411  0.23817272  0.71972889
   0.12812212  0.23500963  0.89208961
   0.62812209  0.23500963  0.89208961
   0.11594788  0.28895143  0.78038287
   0.61594790  0.28895143  0.78038287
   0.12812212  0.73500967  0.39208963
   0.62812209  0.73500967  0.39208963
   0.11594788  0.78895140  0.28038290
   0.61594790  0.78895140  0.28038290
   0.13189268  0.24135977  0.99999803
   0.63189268  0.24135977  0.99999803
   0.13189268  0.74135977  0.49999806
   0.63189268  0.74135977  0.49999806
   0.38203773  0.75718892  0.00000155
   0.88203776  0.75718892  0.00000155
   0.38203773  0.25718892  0.50000149
   0.88203776  0.25718892  0.50000149
   0.39204022  0.75488591  0.34659809
   0.89204025  0.75488591  0.34659809
   0.39204022  0.25488591  0.84659809
   0.89204025  0.25488591  0.84659809
   0.39205071  0.75463122  0.65341097
   0.89205074  0.75463122  0.65341097
   0.39205071  0.25463122  0.15341100
   0.89205074  0.25463122  0.15341100
   0.40395677  0.75387365  0.45067388
   0.90395677  0.75387365  0.45067388
   0.40395677  0.25387368  0.95067388
   0.90395677  0.25387368  0.95067388
   0.15375648  0.24359237  0.54911900
   0.65375650  0.24359237  0.54911900
   0.15375648  0.74359238  0.04911898
   0.65375650  0.74359238  0.04911898
   0.15375256  0.24372239  0.45088366
   0.65375256  0.24372239  0.45088366
   0.15375256  0.74372238  0.95088363
   0.65375256  0.74372238  0.95088363
   0.40396181  0.75374925  0.54932141
   0.90396178  0.75374925  0.54932141
   0.40396181  0.25374922  0.04932140
   0.90396178  0.25374922  0.04932140
   0.31308785  0.55937129  0.05270168
   0.81308782  0.55937129  0.05270168
   0.16036254  0.31429735  0.40648568
   0.66036254  0.31429735  0.40648568
   0.26236111  0.48675755  0.13834487
   0.76236111  0.48675755  0.13834487
   0.14766631  0.18852889  0.30204019
   0.64766633  0.18852889  0.30204019
   0.25045982  0.49899435  0.25117055
   0.75045979  0.49899435  0.25117055
   0.01486007  0.96048576  0.03790466
   0.51486009  0.96048576  0.03790466
   0.03062105  0.02022393  0.14611097
   0.53062105  0.02022393  0.14611097
   0.31308785  0.05937128  0.55270165
   0.81308782  0.05937128  0.55270165
   0.16036254  0.81429732  0.90648568
   0.66036254  0.81429732  0.90648568
   0.26236111  0.98675758  0.63834488
   0.76236111  0.98675758  0.63834488
   0.14766631  0.68852889  0.80204022
   0.64766633  0.68852889  0.80204022
   0.25045982  0.99899441  0.75117058
   0.75045979  0.99899441  0.75117058
   0.01486007  0.46048579  0.53790468
   0.51486009  0.46048579  0.53790468
   0.03062105  0.52022398  0.64611101
   0.53062105  0.52022398  0.64611101
   0.06306494  0.43663773  0.94717264
   0.56306493  0.43663773  0.94717264
   0.40739250  0.68713236  0.59435010
   0.90739250  0.68713236  0.59435010
   0.01262121  0.51223987  0.86147994
   0.51262122  0.51223987  0.86147994
   0.39237386  0.79884827  0.69616014
   0.89237386  0.79884827  0.69616014
   0.99692041  0.50962901  0.74918729
   0.49692041  0.50962901  0.74918729
   0.26556754  0.03653334  0.96242970
   0.76556754  0.03653334  0.96242970
   0.27879700  0.97748178  0.85419619
   0.77879703  0.97748178  0.85419619
   0.06306494  0.93663776  0.44717261
   0.56306493  0.93663776  0.44717261
   0.40739250  0.18713236  0.09435011
   0.90739250  0.18713236  0.09435011
   0.01262121  0.01223989  0.36147991
   0.51262122  0.01223989  0.36147991
   0.39237386  0.29884830  0.19616014
   0.89237386  0.29884830  0.19616014
   0.99692041  0.00962907  0.24918728
   0.49692041  0.00962907  0.24918728
   0.26556754  0.53653336  0.46242964
   0.76556754  0.53653336  0.46242964
   0.27879700  0.47748187  0.35419622
   0.77879703  0.47748187  0.35419622
   0.06307518  0.43646768  0.05282430
   0.56307519  0.43646768  0.05282430
   0.40738520  0.68732125  0.40564677
   0.90738523  0.68732125  0.40564677
   0.01264431  0.51196271  0.13851419
   0.51264429  0.51196271  0.13851419
   0.39236945  0.79903758  0.30384195
   0.89236945  0.79903758  0.30384195
   0.99693203  0.50964493  0.25081703
   0.49693203  0.50964493  0.25081703
   0.26557741  0.03641956  0.03756845
   0.76557743  0.03641956  0.03756845
   0.27881515  0.97721171  0.14579652
   0.77881515  0.97721171  0.14579652
   0.06307518  0.93646765  0.55282432
   0.56307519  0.93646765  0.55282432
   0.40738520  0.18732128  0.90564680
   0.90738523  0.18732128  0.90564680
   0.01264431  0.01196269  0.63851416
   0.51264429  0.01196269  0.63851416
   0.39236945  0.29903758  0.80384195
   0.89236945  0.29903758  0.80384195
   0.99693203  0.00964491  0.75081706
   0.49693203  0.00964491  0.75081706
   0.26557741  0.53641957  0.53756845
   0.76557743  0.53641957  0.53756845
   0.27881515  0.47721171  0.64579654
   0.77881515  0.47721171  0.64579654
   0.31308207  0.55952269  0.94729561
   0.81308210  0.55952269  0.94729561
   0.16036083  0.31409013  0.59351313
   0.66036081  0.31409013  0.59351313
   0.26236579  0.48703015  0.86165857
   0.76236582  0.48703015  0.86165857
   0.14766569  0.18855064  0.69795817
   0.64766568  0.18855064  0.69795817
   0.25046605  0.49897847  0.74883759
   0.75046605  0.49897847  0.74883759
   0.01486503  0.96060502  0.96209371
   0.51486504  0.96060502  0.96209371
   0.03063005  0.02050917  0.85388970
   0.53063005  0.02050917  0.85388970
   0.31308207  0.05952265  0.44729567
   0.81308210  0.05952265  0.44729567
   0.16036083  0.81409013  0.09351314
   0.66036081  0.81409013  0.09351314
   0.26236579  0.98703009  0.36165854
   0.76236582  0.98703009  0.36165854
   0.14766569  0.68855065  0.19795811
   0.64766568  0.68855065  0.19795811
   0.25046605  0.99897850  0.24883759
   0.75046605  0.99897850  0.24883759
   0.01486503  0.46060502  0.46209371
   0.51486504  0.46060502  0.46209371
   0.03063005  0.52050918  0.35388973
   0.53063005  0.52050918  0.35388973
   0.16772234  0.16620350  0.50000018
   0.66772234  0.16620350  0.50000018
   0.16772234  0.66620356  0.00000024
   0.66772234  0.66620356  0.00000024
   0.41828510  0.83087271  0.49999774
   0.91828513  0.83087271  0.49999774
   0.41828510  0.33087277  0.99999774
   0.91828513  0.33087277  0.99999774
   0.14058799  0.24115924  0.34478474
   0.64058799  0.24115924  0.34478474
   0.14058799  0.74115926  0.84478474
   0.64058799  0.74115926  0.84478474
   0.14059766  0.24090552  0.65520364
   0.64059764  0.24090552  0.65520364
   0.14059766  0.74090552  0.15520367
   0.64059764  0.74090552  0.15520367
BiTiFeO                                 
           1
    10.923296   -0.001267    0.000023
    -0.009384    5.459693   -0.000601
    -0.000195    0.012146   41.809113
   Bi   Ti   O    Fe
  40  24 120   8
Direct configuration=     2
   0.12815315  0.23485161  0.10791493
   0.62815315  0.23485161  0.10791493
   0.11595314  0.28908034  0.21962540
   0.61595314  0.28908034  0.21962540
   0.12815315  0.73485159  0.60791497
   0.62815315  0.73485159  0.60791497
   0.11595314  0.78908037  0.71962535
   0.61595314  0.78908037  0.71962535
   0.37510979  0.75968886  0.89246351
   0.87510976  0.75968886  0.89246351
   0.36429783  0.73801924  0.78027898
   0.86429780  0.73801924  0.78027898
   0.37510979  0.25968889  0.39246354
   0.87510976  0.25968889  0.39246354
   0.36429783  0.23801929  0.28027889
   0.86429780  0.23801929  0.28027889
   0.37511419  0.75958638  0.10753375
   0.87511422  0.75958638  0.10753375
   0.36429551  0.73818225  0.21973031
   0.86429551  0.73818225  0.21973031
   0.37511419  0.25958641  0.60753378
   0.87511422  0.25958641  0.60753378
   0.36429551  0.23818221  0.71973033
   0.86429551  0.23818221  0.71973033
   0.12813147  0.23499140  0.89208817
   0.62813144  0.23499140  0.89208817
   0.11594099  0.28894465  0.78038177
   0.61594102  0.28894465  0.78038177
   0.12813147  0.73499145  0.39208820
   0.62813144  0.73499145  0.39208820
   0.11594099  0.78894462  0.28038179
   0.61594102  0.78894462  0.28038179
   0.13190827  0.24134881  0.99999814
   0.63190827  0.24134881  0.99999814
   0.13190827  0.74134881  0.49999817
   0.63190827  0.74134881  0.49999817
   0.38205139  0.75719664  0.00000178
   0.88205142  0.75719664  0.00000178
   0.38205139  0.25719664  0.50000172
   0.88205142  0.25719664  0.50000172
   0.39203517  0.75490647  0.34659219
   0.89203520  0.75490647  0.34659219
   0.39203517  0.25490647  0.84659219
   0.89203520  0.25490647  0.84659219
   0.39204562  0.75465148  0.65341693
   0.89204565  0.75465148  0.65341693
   0.39204562  0.25465148  0.15341696
   0.89204565  0.25465148  0.15341696
   0.40396563  0.75387711  0.45067387
   0.90396563  0.75387711  0.45067387
   0.40396563  0.25387714  0.95067387
   0.90396563  0.25387714  0.95067387
   0.15376652  0.24358982  0.54911937
   0.65376654  0.24358982  0.54911937
   0.15376652  0.74358983  0.04911935
   0.65376654  0.74358983  0.04911935
   0.15376257  0.24372051  0.45088321
   0.65376257  0.24372051  0.45088321
   0.15376257  0.74372049  0.95088318
   0.65376257  0.74372049  0.95088318
   0.40397108  0.75375295  0.54932150
   0.90397105  0.75375295  0.54932150
   0.40397108  0.25375292  0.04932148
   0.90397105  0.25375292  0.04932148
   0.31308548  0.55936881  0.05269843
   0.81308545  0.55936881  0.05269843
   0.16034335  0.31429663  0.40648917
   0.66034335  0.31429663  0.40648917
   0.26240286  0.48677327  0.13834475
   0.76240286  0.48677327  0.13834475
   0.14765805  0.18852892  0.30203481
   0.64765808  0.18852892  0.30203481
   0.25043094  0.49901145  0.25116870
   0.75043091  0.49901145  0.25116870
   0.01484186  0.96046337  0.03790131
   0.51484189  0.96046337  0.03790131
   0.03055046  0.02014922  0.14610452
   0.53055047  0.02014922  0.14610452
   0.31308548  0.05936880  0.55269840
   0.81308545  0.05936880  0.55269840
   0.16034335  0.81429660  0.90648917
   0.66034335  0.81429660  0.90648917
   0.26240286  0.98677329  0.63834477
   0.76240286  0.98677329  0.63834477
   0.14765805  0.68852892  0.80203484
   0.64765808  0.68852892  0.80203484
   0.25043094  0.99901151  0.75116873
   0.75043091  0.99901151  0.75116873
   0.01484186  0.46046340  0.53790133
   0.51484189  0.46046340  0.53790133
   0.03055046  0.52014927  0.64610456
   0.53055047  0.52014927  0.64610456
   0.06310686  0.43663986  0.94717543
   0.56310685  0.43663986  0.94717543
   0.40740753  0.68712601  0.59434762
   0.90740753  0.68712601  0.59434762
   0.01259432  0.51221963  0.86147935
   0.51259434  0.51221963  0.86147935
   0.39241002  0.79883726  0.69616000
   0.89241002  0.79883726  0.69616000
   0.99688706  0.50963486  0.74918747
   0.49688706  0.50963486  0.74918747
   0.26561190  0.03655040  0.96243211
   0.76561190  0.03655040  0.96243211
   0.27877225  0.97754106  0.85420202
   0.77877228  0.97754106  0.85420202
   0.06310686  0.93663989  0.44717540
   0.56310685  0.93663989  0.44717540
   0.40740753  0.18712601  0.09434763
   0.90740753  0.18712601  0.09434763
   0.01259432  0.01221965  0.36147932
   0.51259434  0.01221965  0.36147932
   0.39241002  0.29883729  0.19616000
   0.89241002  0.29883729  0.19616000
   0.99688706  0.00963492  0.24918746
   0.49688706  0.00963492  0.24918746
   0.26561190  0.53655041  0.46243205
   0.76561190  0.53655041  0.46243205
   0.27877225  0.47754115  0.35420205
   0.77877228  0.47754115  0.35420205
   0.06311766  0.43647212  0.05282132
   0.56311767  0.43647212  0.05282132
   0.40740006  0.68731512  0.40564927
   0.90740009  0.68731512  0.40564927
   0.01261831  0.51194092  0.13851494
   0.51261829  0.51194092  0.13851494
   0.39240588  0.79902589  0.30384265
   0.89240588  0.79902589  0.30384265
   0.99690014  0.50965128  0.25081682
   0.49690014  0.50965128  0.25081682
   0.26562159  0.03643492  0.03756579
   0.76562162  0.03643492  0.03756579
   0.27879230  0.97727428  0.14579065
   0.77879230  0.97727428  0.14579065
   0.06311766  0.93647209  0.55282133
   0.56311767  0.93647209  0.55282133
   0.40740006  0.18731514  0.90564930
   0.90740009  0.18731514  0.90564930
   0.01261831  0.01194090  0.63851491
   0.51261829  0.01194090  0.63851491
   0.39240588  0.29902589  0.80384265
   0.89240588  0.29902589  0.80384265
   0.99690014  0.00965127  0.75081685
   0.49690014  0.00965127  0.75081685
   0.26562159  0.53643494  0.53756579
   0.76562162  0.53643494  0.53756579
   0.27879230  0.47727428  0.64579066
   0.77879230  0.47727428  0.64579066
   0.31308027  0.55951741  0.94729879
   0.81308030  0.55951741  0.94729879
   0.16034136  0.31409056  0.59350962
   0.66034134  0.31409056  0.59350962
   0.26240823  0.48704595  0.86165894
   0.76240826  0.48704595  0.86165894
   0.14765822  0.18855099  0.69796409
   0.64765821  0.18855099  0.69796409
   0.25043853  0.49899461  0.74883885
   0.75043853  0.49899461  0.74883885
   0.01484711  0.96058394  0.96209691
   0.51484713  0.96058394  0.96209691
   0.03056218  0.02043376  0.85389611
   0.53056218  0.02043376  0.85389611
   0.31308027  0.05951737  0.44729885
   0.81308030  0.05951737  0.44729885
   0.16034136  0.81409056  0.09350963
   0.66034134  0.81409056  0.09350963
   0.26240823  0.98704589  0.36165891
   0.76240826  0.98704589  0.36165891
   0.14765822  0.68855100  0.19796403
   0.64765821  0.68855100  0.19796403
   0.25043853  0.99899464  0.24883885
   0.75043853  0.99899464  0.24883885
   0.01484711  0.46058394  0.46209691
   0.51484713  0.46058394  0.46209691
   0.03056218  0.52043377  0.35389614
   0.53056218  0.52043377  0.35389614
   0.16774641  0.16619049  0.50000016
   0.66774641  0.16619049  0.50000016
   0.16774641  0.66619055  0.00000022
   0.66774641  0.66619055  0.00000022
   0.41828004  0.83088552  0.49999763
   0.91828007  0.83088552  0.49999763
   0.41828004  0.33088558  0.99999763
   0.91828007  0.33088558  0.99999763
   0.14058345  0.24115909  0.34478703
   0.64058345  0.24115909  0.34478703
   0.14058345  0.74115911  0.84478703
   0.64058345  0.74115911  0.84478703
   0.14059281  0.24090371  0.65520084
   0.64059280  0.24090371  0.65520084
   0.14059281  0.74090371  0.15520087
   0.64059280  0.74090371  0.15520087
BiTiFeO                                 
           1
    10.922847   -0.001299    0.000025
    -0.009400    5.459355   -0.000620
    -0.000190    0.012003   41.837415
   Bi   Ti   O    Fe
  40  24 120   8
Direct configuration=     3
   0.12808577  0.23479618  0.10794909
   0.62808577  0.23479618  0.10794909
   0.11592585  0.28908367  0.21966597
   0.61592585  0.28908367  0.21966597
   0.12808577  0.73479616  0.60794914
   0.62808577  0.73479616  0.60794914
   0.11592585  0.78908370  0.71966593
   0.61592585  0.78908370  0.71966593
   0.37505490  0.75974733  0.89243269
   0.87505487  0.75974733  0.89243269
   0.36428636  0.73802074  0.78023176
   0.86428633  0.73802074  0.78023176
   0.37505490  0.25974736  0.39243272
   0.87505487  0.25974736  0.39243272
   0.36428636  0.23802078  0.28023167
   0.86428633  0.23802078  0.28023167
   0.37506440  0.75962978  0.10756476
   0.87506443  0.75962978  0.10756476
   0.36428496  0.73816298  0.21977740
   0.86428496  0.73816298  0.21977740
   0.37506440  0.25962981  0.60756479
   0.87506443  0.25962981  0.60756479
   0.36428496  0.23816294  0.71977741
   0.86428496  0.23816294  0.71977741
   0.12806934  0.23494104  0.89205411
   0.62806931  0.23494104  0.89205411
   0.11591264  0.28895956  0.78033986
   0.61591266  0.28895956  0.78033986
   0.12806934  0.73494108  0.39205414
   0.62806931  0.73494108  0.39205414
   0.11591264  0.78895953  0.28033989
   0.61591266  0.78895953  0.28033989
   0.13189796  0.24132352  0.99999837
   0.63189796  0.24132352  0.99999837
   0.13189796  0.74132352  0.49999840
   0.63189796  0.74132352  0.49999840
   0.38204229  0.75720980  0.00000147
   0.88204232  0.75720980  0.00000147
   0.38204229  0.25720980  0.50000141
   0.88204232  0.25720980  0.50000141
   0.39205404  0.75511374  0.34643970
   0.89205407  0.75511374  0.34643970
   0.39205404  0.25511374  0.84643970
   0.89205407  0.25511374  0.84643970
   0.39206565  0.75487449  0.65356737
   0.89206568  0.75487449  0.65356737
   0.39206565  0.25487449  0.15356740
   0.89206568  0.25487449  0.15356740
   0.40401741  0.75381090  0.45062201
   0.90401741  0.75381090  0.45062201
   0.40401741  0.25381093  0.95062201
   0.90401741  0.25381093  0.95062201
   0.15382985  0.24371506  0.54917172
   0.65382986  0.24371506  0.54917172
   0.15382985  0.74371507  0.04917170
   0.65382986  0.74371507  0.04917170
   0.15382784  0.24384585  0.45082879
   0.65382784  0.24384585  0.45082879
   0.15382784  0.74384583  0.95082876
   0.65382784  0.74384583  0.95082876
   0.40402412  0.75368654  0.54937502
   0.90402409  0.75368654  0.54937502
   0.40402412  0.25368651  0.04937501
   0.90402409  0.25368651  0.04937501
   0.31309172  0.55940705  0.05268054
   0.81309169  0.55940705  0.05268054
   0.16033895  0.31422960  0.40657595
   0.66033895  0.31422960  0.40657595
   0.26239361  0.48680382  0.13833725
   0.76239361  0.48680382  0.13833725
   0.14764293  0.18866586  0.30213730
   0.64764296  0.18866586  0.30213730
   0.25040493  0.49903152  0.25115205
   0.75040490  0.49903152  0.25115205
   0.01483462  0.96039032  0.03789129
   0.51483465  0.96039032  0.03789129
   0.03055312  0.02015985  0.14606183
   0.53055313  0.02015985  0.14606183
   0.31309172  0.05940704  0.55268051
   0.81309169  0.05940704  0.55268051
   0.16033895  0.81422957  0.90657595
   0.66033895  0.81422957  0.90657595
   0.26239361  0.98680385  0.63833726
   0.76239361  0.98680385  0.63833726
   0.14764293  0.68866586  0.80213733
   0.64764296  0.68866586  0.80213733
   0.25040493  0.99903158  0.75115208
   0.75040490  0.99903158  0.75115208
   0.01483462  0.46039035  0.53789131
   0.51483465  0.46039035  0.53789131
   0.03055312  0.52015990  0.64606188
   0.53055313  0.52015990  0.64606188
   0.06313080  0.43657439  0.94719424
   0.56313079  0.43657439  0.94719424
   0.40743113  0.68717969  0.59426744
   0.90743113  0.68717969  0.59426744
   0.01259356  0.51224945  0.86148933
   0.51259358  0.51224945  0.86148933
   0.39244375  0.79871255  0.69602601
   0.89244375  0.79871255  0.69602601
   0.99688069  0.50962299  0.74920763
   0.49688069  0.50962299  0.74920763
   0.26560508  0.03659015  0.96244285
   0.76560508  0.03659015  0.96244285
   0.27875830  0.97744607  0.85424537
   0.77875833  0.97744607  0.85424537
   0.06313080  0.93657442  0.44719421
   0.56313079  0.93657442  0.44719421
   0.40743113  0.18717969  0.09426746
   0.90743113  0.18717969  0.09426746
   0.01259356  0.01224947  0.36148930
   0.51259358  0.01224947  0.36148930
   0.39244375  0.29871258  0.19602601
   0.89244375  0.29871258  0.19602601
   0.99688069  0.00962305  0.24920762
   0.49688069  0.00962305  0.24920762
   0.26560508  0.53659017  0.46244279
   0.76560508  0.53659017  0.46244279
   0.27875830  0.47744616  0.35424540
   0.77875833  0.47744616  0.35424540
   0.06314382  0.43641647  0.05280275
   0.56314383  0.43641647  0.05280275
   0.40742512  0.68737067  0.40572829
   0.90742515  0.68737067  0.40572829
   0.01261388  0.51197312  0.13850564
   0.51261387  0.51197312  0.13850564
   0.39244007  0.79890007  0.30397794
   0.89244007  0.79890007  0.30397794
   0.99688871  0.50964377  0.25079714
   0.49688871  0.50964377  0.25079714
   0.26561229  0.03647362  0.03755489
   0.76561232  0.03647362  0.03755489
   0.27877393  0.97718635  0.14574857
   0.77877393  0.97718635  0.14574857
   0.06314382  0.93641644  0.55280276
   0.56314383  0.93641644  0.55280276
   0.40742512  0.18737070  0.90572832
   0.90742515  0.18737070  0.90572832
   0.01261388  0.01197310  0.63850561
   0.51261387  0.01197310  0.63850561
   0.39244007  0.29890007  0.80397794
   0.89244007  0.29890007  0.80397794
   0.99688871  0.00964376  0.75079717
   0.49688871  0.00964376  0.75079717
   0.26561229  0.53647363  0.53755489
   0.76561232  0.53647363  0.53755489
   0.27877393  0.47718635  0.64574859
   0.77877393  0.47718635  0.64574859
   0.31308864  0.55954631  0.94731633
   0.81308867  0.55954631  0.94731633
   0.16033845  0.31402391  0.59342416
   0.66033843  0.31402391  0.59342416
   0.26239509  0.48707101  0.86166624
   0.76239512  0.48707101  0.86166624
   0.14764297  0.18868333  0.69786022
   0.64764295  0.18868333  0.69786022
   0.25040667  0.49901282  0.74885563
   0.75040667  0.49901282  0.74885563
   0.01483747  0.96051190  0.96210708
   0.51483749  0.96051190  0.96210708
   0.03056153  0.02043916  0.85393728
   0.53056152  0.02043916  0.85393728
   0.31308864  0.05954628  0.44731639
   0.81308867  0.05954628  0.44731639
   0.16033845  0.81402391  0.09342416
   0.66033843  0.81402391  0.09342416
   0.26239509  0.98707095  0.36166621
   0.76239512  0.98707095  0.36166621
   0.14764297  0.68868334  0.19786016
   0.64764295  0.68868334  0.19786016
   0.25040667  0.99901285  0.24885563
   0.75040667  0.99901285  0.24885563
   0.01483747  0.46051190  0.46210708
   0.51483749  0.46051190  0.46210708
   0.03056153  0.52043917  0.35393731
   0.53056152  0.52043917  0.35393731
   0.16775969  0.16619321  0.49999989
   0.66775969  0.16619321  0.49999989
   0.16775969  0.66619327 -0.00000005
   0.66775969  0.66619327 -0.00000005
   0.41829569  0.83090532  0.49999795
   0.91829572  0.83090532  0.49999795
   0.41829569  0.33090537  0.99999795
   0.91829572  0.33090537  0.99999795
   0.14061030  0.24095605  0.34467672
   0.64061030  0.24095605  0.34467672
   0.14061030  0.74095607  0.84467672
   0.64061030  0.74095607  0.84467672
   0.14061890  0.24070826  0.65531406
   0.64061888  0.24070826  0.65531406
   0.14061890  0.74070826  0.15531409
   0.64061888  0.74070826  0.15531409
BiTiFeO                                 
           1
    10.925321   -0.001395    0.000033
    -0.009450    5.459886   -0.000694
    -0.000160    0.011443   41.907035
   Bi   Ti   O    Fe
  40  24 120   8
Direct configuration=     4
   0.12807328  0.23478866  0.10794332
   0.62807328  0.23478866  0.10794332
   0.11592997  0.28905531  0.21966424
   0.61592997  0.28905531  0.21966424
   0.12807328  0.73478864  0.60794337
   0.62807328  0.73478864  0.60794337
   0.11592997  0.78905534  0.71966419
   0.61592997  0.78905534  0.71966419
   0.37505274  0.75976340  0.89243937
   0.87505271  0.75976340  0.89243937
   0.36428840  0.73805622  0.78023229
   0.86428837  0.73805622  0.78023229
   0.37505274  0.25976343  0.39243940
   0.87505271  0.25976343  0.39243940
   0.36428840  0.23805626  0.28023220
   0.86428837  0.23805626  0.28023220
   0.37506313  0.75964077  0.10755818
   0.87506316  0.75964077  0.10755818
   0.36428757  0.73819079  0.21977678
   0.86428757  0.73819079  0.21977678
   0.37506313  0.25964080  0.60755821
   0.87506316  0.25964080  0.60755821
   0.36428757  0.23819075  0.71977680
   0.86428757  0.23819075  0.71977680
   0.12805793  0.23493672  0.89205978
   0.62805790  0.23493672  0.89205978
   0.11591679  0.28893626  0.78034132
   0.61591682  0.28893626  0.78034132
   0.12805793  0.73493676  0.39205981
   0.62805790  0.73493676  0.39205981
   0.11591679  0.78893623  0.28034135
   0.61591682  0.78893623  0.28034135
   0.13189689  0.24133074  0.99999843
   0.63189689  0.24133074  0.99999843
   0.13189689  0.74133074  0.49999846
   0.63189689  0.74133074  0.49999846
   0.38204350  0.75719928  0.00000134
   0.88204353  0.75719928  0.00000134
   0.38204350  0.25719928  0.50000128
   0.88204353  0.25719928  0.50000128
   0.39205462  0.75510578  0.34647221
   0.89205465  0.75510578  0.34647221
   0.39205462  0.25510578  0.84647221
   0.89205465  0.25510578  0.84647221
   0.39206587  0.75487002  0.65353477
   0.89206590  0.75487002  0.65353477
   0.39206587  0.25487002  0.15353480
   0.89206590  0.25487002  0.15353480
   0.40403679  0.75379480  0.45063134
   0.90403679  0.75379480  0.45063134
   0.40403679  0.25379483  0.95063134
   0.90403679  0.25379483  0.95063134
   0.15384812  0.24373660  0.54915716
   0.65384814  0.24373660  0.54915716
   0.15384812  0.74373661  0.04915714
   0.65384814  0.74373661  0.04915714
   0.15384618  0.24386606  0.45084307
   0.65384618  0.24386606  0.45084307
   0.15384618  0.74386604  0.95084304
   0.65384618  0.74386604  0.95084304
   0.40404335  0.75367131  0.54936592
   0.90404332  0.75367131  0.54936592
   0.40404335  0.25367128  0.04936591
   0.90404332  0.25367128  0.04936591
   0.31310276  0.55944302  0.05268029
   0.81310273  0.55944302  0.05268029
   0.16033630  0.31424632  0.40657792
   0.66033630  0.31424632  0.40657792
   0.26238805  0.48680864  0.13834533
   0.76238805  0.48680864  0.13834533
   0.14764182  0.18865926  0.30212664
   0.64764185  0.18865926  0.30212664
   0.25038995  0.49904329  0.25114735
   0.75038992  0.49904329  0.25114735
   0.01482837  0.96035930  0.03789184
   0.51482840  0.96035930  0.03789184
   0.03054192  0.02012569  0.14605700
   0.53054193  0.02012569  0.14605700
   0.31310276  0.05944301  0.55268026
   0.81310273  0.05944301  0.55268026
   0.16033630  0.81424629  0.90657792
   0.66033630  0.81424629  0.90657792
   0.26238805  0.98680867  0.63834534
   0.76238805  0.98680867  0.63834534
   0.14764182  0.68865926  0.80212667
   0.64764185  0.68865926  0.80212667
   0.25038995  0.99904335  0.75114738
   0.75038992  0.99904335  0.75114738
   0.01482837  0.46035933  0.53789186
   0.51482840  0.46035933  0.53789186
   0.03054192  0.52012573  0.64605704
   0.53054193  0.52012573  0.64605704
   0.06315026  0.43653154  0.94719489
   0.56315026  0.43653154  0.94719489
   0.40743997  0.68716499  0.59426282
   0.90743997  0.68716499  0.59426282
   0.01259342  0.51226771  0.86148253
   0.51259344  0.51226771  0.86148253
   0.39245416  0.79873908  0.69605831
   0.89245416  0.79873908  0.69605831
   0.99686475  0.50962171  0.74921258
   0.49686475  0.50962171  0.74921258
   0.26560033  0.03661025  0.96244256
   0.76560033  0.03661025  0.96244256
   0.27874114  0.97744456  0.85425077
   0.77874117  0.97744456  0.85425077
   0.06315026  0.93653157  0.44719486
   0.56315026  0.93653157  0.44719486
   0.40743997  0.18716499  0.09426283
   0.90743997  0.18716499  0.09426283
   0.01259342  0.01226773  0.36148250
   0.51259344  0.01226773  0.36148250
   0.39245416  0.29873911  0.19605831
   0.89245416  0.29873911  0.19605831
   0.99686475  0.00962177  0.24921257
   0.49686475  0.00962177  0.24921257
   0.26560033  0.53661026  0.46244250
   0.76560033  0.53661026  0.46244250
   0.27874114  0.47744465  0.35425080
   0.77874117  0.47744465  0.35425080
   0.06316344  0.43637627  0.05280219
   0.56316345  0.43637627  0.05280219
   0.40743450  0.68735664  0.40573278
   0.90743453  0.68735664  0.40573278
   0.01261264  0.51199307  0.13851275
   0.51261262  0.51199307  0.13851275
   0.39245049  0.79892620  0.30394560
   0.89245049  0.79892620  0.30394560
   0.99687138  0.50964320  0.25079220
   0.49687138  0.50964320  0.25079220
   0.26560710  0.03649433  0.03755512
   0.76560713  0.03649433  0.03755512
   0.27875614  0.97718899  0.14574363
   0.77875614  0.97718899  0.14574363
   0.06316344  0.93637624  0.55280220
   0.56316345  0.93637624  0.55280220
   0.40743450  0.18735667  0.90573281
   0.90743453  0.18735667  0.90573281
   0.01261264  0.01199304  0.63851272
   0.51261262  0.01199304  0.63851272
   0.39245049  0.29892620  0.80394560
   0.89245049  0.29892620  0.80394560
   0.99687138  0.00964318  0.75079223
   0.49687138  0.00964318  0.75079223
   0.26560710  0.53649435  0.53755512
   0.76560713  0.53649435  0.53755512
   0.27875614  0.47718899  0.64574365
   0.77875614  0.47718899  0.64574365
   0.31309985  0.55957985  0.94731647
   0.81309988  0.55957985  0.94731647
   0.16033640  0.31404066  0.59342233
   0.66033638  0.31404066  0.59342233
   0.26238816  0.48707330  0.86165806
   0.76238819  0.48707330  0.86165806
   0.14764174  0.18867395  0.69787098
   0.64764173  0.18867395  0.69787098
   0.25039007  0.49902411  0.74886024
   0.75039007  0.49902411  0.74886024
   0.01483082  0.96048024  0.96210659
   0.51483084  0.96048024  0.96210659
   0.03054998  0.02040193  0.85394156
   0.53054998  0.02040193  0.85394156
   0.31309985  0.05957981  0.44731653
   0.81309988  0.05957981  0.44731653
   0.16033640  0.81404066  0.09342234
   0.66033638  0.81404066  0.09342234
   0.26238816  0.98707324  0.36165803
   0.76238819  0.98707324  0.36165803
   0.14764174  0.68867397  0.19787092
   0.64764173  0.68867397  0.19787092
   0.25039007  0.99902414  0.24886024
   0.75039007  0.99902414  0.24886024
   0.01483082  0.46048024  0.46210659
   0.51483084  0.46048024  0.46210659
   0.03054998  0.52040194  0.35394159
   0.53054998  0.52040194  0.35394159
   0.16776019  0.16620383  0.49999974
   0.66776019  0.16620383  0.49999974
   0.16776019  0.66620389 -0.00000020
   0.66776019  0.66620389 -0.00000020
   0.41829657  0.83090276  0.49999810
   0.91829660  0.83090276  0.49999810
   0.41829657  0.33090282  0.99999810
   0.91829660  0.33090282  0.99999810
   0.14061167  0.24093819  0.34468341
   0.64061167  0.24093819  0.34468341
   0.14061167  0.74093821  0.84468341
   0.64061167  0.74093821  0.84468341