       N       E                     dE             d eps       ncg     rms          rms(c)
DAV:   1     0.111256515591E+05    0.11126E+05   -0.39380E+05 43008   0.125E+03
DAV:   2     0.104236312389E+04   -0.10083E+05   -0.92778E+04 44364   0.351E+02
DAV:   3    -0.142474180755E+04   -0.24671E+04   -0.23864E+04 48408   0.181E+02
DAV:   4    -0.164675781761E+04   -0.22202E+03   -0.21858E+03 65052   0.607E+01
DAV:   5    -0.165514780670E+04   -0.83900E+01   -0.82727E+01 67680   0.137E+01
DAV:   6    -0.165553453355E+04   -0.38673E+00   -0.38301E+00 68064   0.251E+00
DAV:   7    -0.165555828718E+04   -0.23754E-01   -0.23636E-01 68328   0.624E-01
DAV:   8    -0.165556002581E+04   -0.17386E-02   -0.17340E-02 63480   0.145E-01
DAV:   9    -0.165556016387E+04   -0.13807E-03   -0.13782E-03 44280   0.420E-02
DAV:  10    -0.165556017595E+04   -0.12072E-04   -0.12033E-04 36252   0.159E-02
DAV:  11    -0.165556017839E+04   -0.24392E-05   -0.24217E-05 33840   0.997E-03
DAV:  12    -0.165556017966E+04   -0.12713E-05   -0.12629E-05 32844   0.717E-03    0.166E+02
DAV:  13    -0.122090169290E+04    0.43466E+03   -0.25216E+03 63876   0.812E+01    0.105E+02
DAV:  14    -0.125978489966E+04   -0.38883E+02   -0.68955E+02 66948   0.424E+01    0.695E+01
DAV:  15    -0.125502913476E+04    0.47558E+01   -0.82049E+01 61044   0.145E+01    0.431E+01
DAV:  16    -0.126005224826E+04   -0.50231E+01   -0.66968E+01 65292   0.165E+01    0.299E+01
DAV:  17    -0.125557005189E+04    0.44822E+01   -0.23262E+01 64152   0.822E+00    0.132E+01
DAV:  18    -0.125512483035E+04    0.44522E+00   -0.78071E+00 62388   0.521E+00    0.644E+00
DAV:  19    -0.125486330318E+04    0.26153E+00   -0.24708E+00 63132   0.290E+00    0.205E+00
DAV:  20    -0.125488892843E+04   -0.25625E-01   -0.30566E-01 61884   0.112E+00    0.189E+00
DAV:  21    -0.125490380933E+04   -0.14881E-01   -0.86488E-02 62388   0.536E-01    0.656E-01
DAV:  22    -0.125490387210E+04   -0.62773E-04   -0.15590E-02 54600   0.215E-01    0.396E-01
DAV:  23    -0.125490426760E+04   -0.39551E-03   -0.12543E-02 63516   0.179E-01    0.246E-01
DAV:  24    -0.125490432976E+04   -0.62160E-04   -0.33412E-03 57756   0.100E-01    0.128E-01
DAV:  25    -0.125490428665E+04    0.43112E-04   -0.10188E-03 57792   0.531E-02    0.939E-02
DAV:  26    -0.125490429232E+04   -0.56668E-05   -0.35864E-04 37908   0.289E-02
   1 F= -.12549043E+04 E0= -.12549043E+04  d E =-.125490E+04  mag=    39.9916
       N       E                     dE             d eps       ncg     rms          rms(c)
DAV:   1    -0.125501314277E+04   -0.10886E+00   -0.40085E+02 43008   0.274E+01    0.998E+00
DAV:   2    -0.125534531602E+04   -0.33217E+00   -0.16278E+01 63228   0.112E+01    0.116E+01
DAV:   3    -0.125565900639E+04   -0.31369E+00   -0.58415E+00 59004   0.366E+00    0.624E+00
DAV:   4    -0.125549053594E+04    0.16847E+00   -0.68555E-01 61416   0.141E+00    0.443E+00
DAV:   5    -0.125535760599E+04    0.13293E+00   -0.44909E-01 57336   0.160E+00    0.272E+00
DAV:   6    -0.125534525788E+04    0.12348E-01   -0.44721E-01 59100   0.128E+00    0.138E+00
DAV:   7    -0.125534939368E+04   -0.41358E-02   -0.22957E-01 57864   0.764E-01    0.699E-01
DAV:   8    -0.125534900735E+04    0.38634E-03   -0.30144E-02 63132   0.290E-01    0.435E-01
DAV:   9    -0.125534831281E+04    0.69454E-03   -0.80535E-03 63780   0.203E-01    0.362E-01
DAV:  10    -0.125534843228E+04   -0.11947E-03   -0.35860E-03 60840   0.107E-01    0.233E-01
DAV:  11    -0.125534843465E+04   -0.23767E-05   -0.10287E-03 57576   0.601E-02    0.109E-01
DAV:  12    -0.125534840236E+04    0.32294E-04   -0.26044E-04 34980   0.381E-02
   2 F= -.12553484E+04 E0= -.12553484E+04  d E =-.444110E+00  mag=    39.9946
       N       E                     dE             d eps       ncg     rms          rms(c)
DAV:   1    -0.125606632833E+04   -0.71789E+00   -0.12516E+02 43008   0.155E+01    0.558E+00
DAV:   2    -0.125617792133E+04   -0.11159E+00   -0.67103E+00 59184   0.601E+00    0.773E+00
DAV:   3    -0.125618296410E+04   -0.50428E-02   -0.17409E+00 60120   0.192E+00    0.501E+00
DAV:   4    -0.125610848920E+04    0.74475E-01   -0.37777E-01 64092   0.100E+00    0.407E+00
DAV:   5    -0.125608646891E+04    0.22020E-01   -0.22897E-01 59040   0.109E+00    0.209E+00
DAV:   6    -0.125606666259E+04    0.19806E-01   -0.26704E-01 62712   0.914E-01    0.138E+00
DAV:   7    -0.125606171937E+04    0.49432E-02   -0.11859E-01 60096   0.537E-01    0.809E-01
DAV:   8    -0.125606208522E+04   -0.36586E-03   -0.14462E-02 60576   0.214E-01    0.490E-01
DAV:   9    -0.125606176882E+04    0.31640E-03   -0.28296E-03 62628   0.108E-01    0.306E-01
DAV:  10    -0.125606145330E+04    0.31552E-03   -0.13519E-03 58368   0.806E-02    0.149E-01
DAV:  11    -0.125606130638E+04    0.14691E-03   -0.13238E-03 62640   0.622E-02    0.106E-01
DAV:  12    -0.125606130005E+04    0.63354E-05   -0.25858E-04 33840   0.269E-02
   3 F= -.12560613E+04 E0= -.12560613E+04  d E =-.712898E+00  mag=    39.9965
       N       E                     dE             d eps       ncg     rms          rms(c)
DAV:   1    -0.125612824678E+04   -0.66940E-01   -0.30188E+01 43008   0.771E+00    0.312E+00
DAV:   2    -0.125618857381E+04   -0.60327E-01   -0.18102E+00 60504   0.254E+00    0.367E+00
DAV:   3    -0.125616256890E+04    0.26005E-01   -0.22147E-01 58044   0.858E-01    0.227E+00
DAV:   4    -0.125614929173E+04    0.13277E-01   -0.87109E-02 57612   0.410E-01    0.162E+00
DAV:   5    -0.125614599874E+04    0.32930E-02   -0.21133E-02 53916   0.291E-01    0.740E-01
DAV:   6    -0.125614376840E+04    0.22303E-02   -0.18230E-02 64500   0.261E-01    0.349E-01
DAV:   7    -0.125614409614E+04   -0.32774E-03   -0.70937E-03 51684   0.116E-01    0.203E-01
DAV:   8    -0.125614406625E+04    0.29894E-04   -0.42205E-04 43428   0.428E-02
   4 F= -.12561441E+04 E0= -.12561441E+04  d E =-.827662E-01  mag=    39.9974
       N       E                     dE             d eps       ncg     rms          rms(c)
DAV:   1    -0.125618688340E+04   -0.42787E-01   -0.13589E+01 43008   0.512E+00    0.184E+00
DAV:   2    -0.125618593915E+04    0.94425E-03   -0.69854E-01 61824   0.205E+00    0.245E+00
DAV:   3    -0.125618899123E+04   -0.30521E-02   -0.21407E-01 59016   0.718E-01    0.165E+00
DAV:   4    -0.125618061154E+04    0.83797E-02   -0.27007E-02 60876   0.249E-01    0.126E+00
DAV:   5    -0.125617491846E+04    0.56931E-02   -0.22855E-02 58308   0.317E-01    0.661E-01
DAV:   6    -0.125617278210E+04    0.21364E-02   -0.22625E-02 61608   0.310E-01    0.325E-01
DAV:   7    -0.125617297116E+04   -0.18906E-03   -0.12206E-02 60228   0.176E-01    0.213E-01
DAV:   8    -0.125617296965E+04    0.15113E-05   -0.10108E-03 54924   0.614E-02    0.117E-01
DAV:   9    -0.125617291925E+04    0.50397E-04   -0.26814E-04 31956   0.436E-02
   5 F= -.12561729E+04 E0= -.12561729E+04  d E =-.288530E-01  mag=    39.9982
       N       E                     dE             d eps       ncg     rms          rms(c)
DAV:   1    -0.125618196887E+04   -0.89992E-02   -0.16665E+01 43008   0.554E+00    0.184E+00
DAV:   2    -0.125621446266E+04   -0.32494E-01   -0.93821E-01 59292   0.195E+00    0.271E+00
DAV:   3    -0.125621240189E+04    0.20608E-02   -0.17325E-01 58716   0.611E-01    0.200E+00
DAV:   4    -0.125620074003E+04    0.11662E-01   -0.45255E-02 62208   0.341E-01    0.170E+00
DAV:   5    -0.125620058782E+04    0.15221E-03   -0.60717E-02 59112   0.386E-01    0.106E+00
DAV:   6    -0.125619571788E+04    0.48699E-02   -0.36916E-02 63492   0.350E-01    0.736E-01
DAV:   7    -0.125619325774E+04    0.24601E-02   -0.24885E-02 61044   0.244E-01    0.484E-01
DAV:   8    -0.125619338467E+04   -0.12693E-03   -0.24973E-03 55752   0.979E-02    0.300E-01
DAV:   9    -0.125619318163E+04    0.20305E-03   -0.74278E-04 52236   0.533E-02    0.200E-01
DAV:  10    -0.125619296531E+04    0.21632E-03   -0.73431E-04 46596   0.414E-02    0.102E-01
DAV:  11    -0.125619291064E+04    0.54669E-04   -0.17781E-04 27096   0.250E-02
   6 F= -.12561929E+04 E0= -.12561929E+04  d E =-.199914E-01  mag=    39.9988
       N       E                     dE             d eps       ncg     rms          rms(c)
DAV:   1    -0.125624103662E+04   -0.48071E-01   -0.40644E+00 43008   0.272E+00    0.106E+00
DAV:   2    -0.125624595227E+04   -0.49157E-02   -0.26454E-01 60156   0.105E+00    0.150E+00
DAV:   3    -0.125624375290E+04    0.21994E-02   -0.46634E-02 58200   0.318E-01    0.111E+00
DAV:   4    -0.125624043892E+04    0.33140E-02   -0.24184E-02 63192   0.247E-01    0.906E-01
DAV:   5    -0.125624039044E+04    0.48482E-04   -0.15377E-02 54660   0.200E-01    0.537E-01
DAV:   6    -0.125623894190E+04    0.14485E-02   -0.76568E-03 63744   0.158E-01    0.370E-01
DAV:   7    -0.125623812743E+04    0.81447E-03   -0.66982E-03 56040   0.120E-01    0.194E-01
DAV:   8    -0.125623811784E+04    0.95804E-05   -0.88983E-04 51396   0.522E-02
   7 F= -.12562381E+04 E0= -.12562381E+04  d E =-.452072E-01  mag=    39.9991
       N       E                     dE             d eps       ncg     rms          rms(c)
DAV:   1    -0.125624275978E+04   -0.46324E-02   -0.34751E+00 43032   0.256E+00    0.611E-01
DAV:   2    -0.125625426141E+04   -0.11502E-01   -0.10355E-01 52212   0.481E-01    0.376E-01
DAV:   3    -0.125625488736E+04   -0.62594E-03   -0.56953E-03 62484   0.123E-01    0.193E-01
DAV:   4    -0.125625467665E+04    0.21071E-03   -0.96790E-04 54864   0.538E-02    0.130E-01
DAV:   5    -0.125625459374E+04    0.82914E-04   -0.60797E-04 50028   0.433E-02
   8 F= -.12562546E+04 E0= -.12562546E+04  d E =-.164759E-01  mag=    39.9992
       N       E                     dE             d eps       ncg     rms          rms(c)
DAV:   1    -0.125626135609E+04   -0.66794E-02   -0.23671E+00 43032   0.212E+00    0.602E-01
DAV:   2    -0.125626673326E+04   -0.53772E-02   -0.74054E-02 55176   0.446E-01    0.411E-01
DAV:   3    -0.125626707824E+04   -0.34498E-03   -0.79817E-03 62940   0.156E-01    0.238E-01
DAV:   4    -0.125626681542E+04    0.26282E-03   -0.12855E-03 61104   0.632E-02    0.147E-01
DAV:   5    -0.125626669376E+04    0.12166E-03   -0.53147E-04 48276   0.411E-02    0.713E-02
DAV:   6    -0.125626667775E+04    0.16012E-04   -0.17517E-04 31836   0.307E-02
   9 F= -.12562667E+04 E0= -.12562667E+04  d E =-.120840E-01  mag=    39.9994
       N       E                     dE             d eps       ncg     rms          rms(c)
DAV:   1    -0.125627122820E+04   -0.45344E-02   -0.72607E-01 43428   0.119E+00    0.317E-01
DAV:   2    -0.125627283712E+04   -0.16089E-02   -0.26063E-02 55548   0.260E-01    0.270E-01
DAV:   3    -0.125627277330E+04    0.63818E-04   -0.23548E-03 59844   0.868E-02    0.137E-01
DAV:   4    -0.125627269328E+04    0.80028E-04   -0.67908E-04 51960   0.491E-02
  10 F= -.12562727E+04 E0= -.12562727E+04  d E =-.601553E-02  mag=    39.9995
       N       E                     dE             d eps       ncg     rms          rms(c)
DAV:   1    -0.125627601636E+04   -0.32431E-02   -0.14931E+00 43092   0.167E+00    0.336E-01
DAV:   2    -0.125628045201E+04   -0.44357E-02   -0.41507E-02 52824   0.303E-01    0.212E-01
DAV:   3    -0.125628063148E+04   -0.17947E-03   -0.24553E-03 62232   0.769E-02    0.114E-01
DAV:   4    -0.125628053951E+04    0.91971E-04   -0.17671E-04 32484   0.302E-02
  11 F= -.12562805E+04 E0= -.12562805E+04  d E =-.784624E-02  mag=    39.9996
       N       E                     dE             d eps       ncg     rms          rms(c)
DAV:   1    -0.125626750340E+04    0.13128E-01   -0.98154E+00 43008   0.430E+00    0.806E-01
DAV:   2    -0.125629572449E+04   -0.28221E-01   -0.26994E-01 50604   0.749E-01    0.465E-01
DAV:   3    -0.125629662241E+04   -0.89792E-03   -0.12357E-02 62772   0.159E-01    0.281E-01
DAV:   4    -0.125629611125E+04    0.51116E-03   -0.14404E-03 59556   0.631E-02    0.181E-01
DAV:   5    -0.125629582306E+04    0.28819E-03   -0.12431E-03 52608   0.633E-02    0.783E-02
DAV:   6    -0.125629584628E+04   -0.23217E-04   -0.40397E-04 41196   0.362E-02
  12 F= -.12562958E+04 E0= -.12562958E+04  d E =-.153068E-01  mag=    39.9996
       N       E                     dE             d eps       ncg     rms          rms(c)
DAV:   1    -0.125629770221E+04   -0.18791E-02   -0.29430E-01 43344   0.756E-01    0.321E-01
DAV:   2    -0.125629705538E+04    0.64683E-03   -0.14499E-02 55428   0.222E-01    0.296E-01
DAV:   3    -0.125629696781E+04    0.87563E-04   -0.26724E-03 58560   0.862E-02    0.192E-01
DAV:   4    -0.125629680095E+04    0.16686E-03   -0.11197E-03 54240   0.536E-02    0.136E-01
DAV:   5    -0.125629673935E+04    0.61599E-04   -0.15252E-04 33180   0.355E-02
  13 F= -.12562967E+04 E0= -.12562967E+04  d E =-.893069E-03  mag=    39.9997
       N       E                     dE             d eps       ncg     rms          rms(c)
DAV:   1    -0.125628698003E+04    0.98209E-02   -0.63999E+00 43008   0.347E+00    0.636E-01
DAV:   2    -0.125630605852E+04   -0.19078E-01   -0.17878E-01 50244   0.612E-01    0.393E-01
DAV:   3    -0.125630664972E+04   -0.59121E-03   -0.84478E-03 62148   0.136E-01    0.206E-01
DAV:   4    -0.125630630912E+04    0.34060E-03   -0.10419E-03 56904   0.574E-02    0.144E-01
DAV:   5    -0.125630614931E+04    0.15981E-03   -0.93144E-04 51540   0.531E-02    0.577E-02
DAV:   6    -0.125630615405E+04   -0.47409E-05   -0.22662E-04 29820   0.305E-02
  14 F= -.12563062E+04 E0= -.12563062E+04  d E =-.941470E-02  mag=    39.9998
       N       E                     dE             d eps       ncg     rms          rms(c)
DAV:   1    -0.125630559956E+04    0.54975E-03   -0.26944E-01 43296   0.733E-01    0.281E-01
DAV:   2    -0.125630541916E+04    0.18040E-03   -0.11860E-02 60468   0.180E-01    0.212E-01
DAV:   3    -0.125630530682E+04    0.11234E-03   -0.15136E-03 59916   0.736E-02    0.916E-02
DAV:   4    -0.125630524387E+04    0.62959E-04   -0.16370E-04 28284   0.276E-02
  15 F= -.12563052E+04 E0= -.12563052E+04  d E =0.910183E-03  mag=    39.9998
       N       E                     dE             d eps       ncg     rms          rms(c)
DAV:   1    -0.125630589614E+04   -0.58932E-03   -0.63183E-01 43200   0.110E+00    0.186E-01
DAV:   2    -0.125630769854E+04   -0.18024E-02   -0.17716E-02 50556   0.193E-01    0.117E-01
DAV:   3    -0.125630773154E+04   -0.33003E-04   -0.77288E-04 52668   0.435E-02
  16 F= -.12563077E+04 E0= -.12563077E+04  d E =-.248768E-02  mag=    39.9998
       N       E                     dE             d eps       ncg     rms          rms(c)
DAV:   1    -0.125630825830E+04   -0.55976E-03   -0.65016E-01 43152   0.112E+00    0.199E-01
DAV:   2    -0.125630988258E+04   -0.16243E-02   -0.17496E-02 51276   0.200E-01    0.139E-01
DAV:   3    -0.125630989357E+04   -0.10989E-04   -0.10010E-03 57300   0.491E-02    0.895E-02
DAV:   4    -0.125630983487E+04    0.58706E-04   -0.12529E-04 27720   0.236E-02
  17 F= -.12563098E+04 E0= -.12563098E+04  d E =-.210332E-02  mag=    39.9998
       N       E                     dE             d eps       ncg     rms          rms(c)
DAV:   1    -0.125630923039E+04    0.66318E-03   -0.13758E+00 43032   0.162E+00    0.263E-01
DAV:   2    -0.125631287695E+04   -0.36466E-02   -0.36103E-02 48612   0.271E-01    0.156E-01
DAV:   3    -0.125631295798E+04   -0.81038E-04   -0.16114E-03 59844   0.547E-02    0.902E-02
DAV:   4    -0.125631287409E+04    0.83896E-04   -0.16000E-04 30900   0.280E-02
  18 F= -.12563129E+04 E0= -.12563129E+04  d E =-.303922E-02  mag=    39.9999
       N       E                     dE             d eps       ncg     rms          rms(c)
DAV:   1    -0.125628503288E+04    0.27925E-01   -0.12394E+01 43008   0.486E+00    0.770E-01
DAV:   2    -0.125631899865E+04   -0.33966E-01   -0.32754E-01 48396   0.811E-01    0.431E-01
DAV:   3    -0.125631989589E+04   -0.89724E-03   -0.13958E-02 62100   0.161E-01    0.271E-01
DAV:   4    -0.125631938612E+04    0.50977E-03   -0.12285E-03 59208   0.586E-02    0.173E-01
DAV:   5    -0.125631898940E+04    0.39672E-03   -0.15987E-03 52248   0.764E-02    0.654E-02
DAV:   6    -0.125631902986E+04   -0.40469E-04   -0.60263E-04 46872   0.410E-02
  19 F= -.12563190E+04 E0= -.12563190E+04  d E =-.615578E-02  mag=    39.9999
       N       E                     dE             d eps       ncg     rms          rms(c)
DAV:   1    -0.125631677429E+04    0.22151E-02   -0.13254E+00 43092   0.159E+00    0.250E-01
DAV:   2    -0.125632033804E+04   -0.35638E-02   -0.35802E-02 48816   0.268E-01    0.145E-01
DAV:   3    -0.125632041935E+04   -0.81316E-04   -0.15622E-03 59328   0.586E-02    0.914E-02
DAV:   4    -0.125632036417E+04    0.55186E-04   -0.11624E-04 27504   0.233E-02
  20 F= -.12563204E+04 E0= -.12563204E+04  d E =-.133430E-02  mag=    39.9999
       N       E                     dE             d eps       ncg     rms          rms(c)
DAV:   1    -0.125632055692E+04   -0.13756E-03   -0.10879E-01 43548   0.460E-01    0.844E-02
DAV:   2    -0.125632083225E+04   -0.27534E-03   -0.27773E-03 52992   0.796E-02    0.567E-02
DAV:   3    -0.125632083718E+04   -0.49210E-05   -0.10680E-04 25284   0.208E-02
  21 F= -.12563208E+04 E0= -.12563208E+04  d E =-.473008E-03  mag=    39.9999
       N       E                     dE             d eps       ncg     rms          rms(c)
DAV:   1    -0.125632012422E+04    0.70804E-03   -0.73628E-01 43080   0.119E+00    0.172E-01
DAV:   2    -0.125632195047E+04   -0.18263E-02   -0.19112E-02 48612   0.198E-01    0.111E-01
DAV:   3    -0.125632196814E+04   -0.17667E-04   -0.85859E-04 54060   0.449E-02
  22 F= -.12563220E+04 E0= -.12563220E+04  d E =-.113096E-02  mag=    39.9999
       N       E                     dE             d eps       ncg     rms          rms(c)
DAV:   1    -0.125631853250E+04    0.34180E-02   -0.21065E+00 43032   0.202E+00    0.290E-01
DAV:   2    -0.125632369819E+04   -0.51657E-02   -0.53028E-02 46860   0.328E-01    0.184E-01
DAV:   3    -0.125632371261E+04   -0.14420E-04   -0.22520E-03 60672   0.679E-02    0.121E-01
DAV:   4    -0.125632357580E+04    0.13682E-03   -0.18408E-04 30744   0.309E-02    0.841E-02
DAV:   5    -0.125632352339E+04    0.52406E-04   -0.53938E-04 42528   0.454E-02
  23 F= -.12563235E+04 E0= -.12563235E+04  d E =-.155525E-02  mag=    39.9999
       N       E                     dE             d eps       ncg     rms          rms(c)
DAV:   1    -0.125632198142E+04    0.15944E-02   -0.45811E-01 43080   0.947E-01    0.159E-01
DAV:   2    -0.125632294549E+04   -0.96407E-03   -0.12924E-02 51588   0.172E-01    0.121E-01
DAV:   3    -0.125632290472E+04    0.40772E-04   -0.63883E-04 50004   0.483E-02
  24 F= -.12563229E+04 E0= -.12563229E+04  d E =0.618669E-03  mag=    39.9999
       N       E                     dE             d eps       ncg     rms          rms(c)
DAV:   1    -0.125632292520E+04    0.20291E-04   -0.10278E-01 43152   0.448E-01    0.817E-02
DAV:   2    -0.125632321001E+04   -0.28481E-03   -0.30239E-03 50988   0.808E-02    0.447E-02
DAV:   3    -0.125632321975E+04   -0.97321E-05   -0.10119E-04 24504   0.187E-02
  25 F= -.12563232E+04 E0= -.12563232E+04  d E =-.315025E-03  mag=    39.9999
       N       E                     dE             d eps       ncg     rms          rms(c)
DAV:   1    -0.125632310516E+04    0.10486E-03   -0.31936E-01 43080   0.787E-01    0.122E-01
DAV:   2    -0.125632386828E+04   -0.76313E-03   -0.84276E-03 49380   0.133E-01    0.786E-02
DAV:   3    -0.125632386001E+04    0.82747E-05   -0.32007E-04 37068   0.331E-02
  26 F= -.12563239E+04 E0= -.12563239E+04  d E =-.640263E-03  mag=    40.0000
       N       E                     dE             d eps       ncg     rms          rms(c)
DAV:   1    -0.125632371307E+04    0.15522E-03   -0.37566E-01 43080   0.856E-01    0.146E-01
DAV:   2    -0.125632448041E+04   -0.76734E-03   -0.10101E-02 51804   0.151E-01    0.112E-01
DAV:   3    -0.125632444009E+04    0.40319E-04   -0.48358E-04 44604   0.415E-02
  27 F= -.12563244E+04 E0= -.12563244E+04  d E =-.580079E-03  mag=    40.0000
       N       E                     dE             d eps       ncg     rms          rms(c)
DAV:   1    -0.125632417057E+04    0.30984E-03   -0.44218E-02 43224   0.298E-01    0.797E-02
DAV:   2    -0.125632425131E+04   -0.80737E-04   -0.16770E-03 53820   0.646E-02    0.518E-02
DAV:   3    -0.125632424155E+04    0.97561E-05   -0.10468E-04 25956   0.241E-02
  28 F= -.12563242E+04 E0= -.12563242E+04  d E =0.198538E-03  mag=    40.0000
       N       E                     dE             d eps       ncg     rms          rms(c)
DAV:   1    -0.125632440240E+04   -0.15109E-03   -0.38721E-02 43368   0.283E-01    0.107E-01
DAV:   2    -0.125632436881E+04    0.33586E-04   -0.15303E-03 54240   0.665E-02    0.664E-02
DAV:   3    -0.125632435321E+04    0.15598E-04   -0.17961E-04 32928   0.317E-02
  29 F= -.12563244E+04 E0= -.12563244E+04  d E =-.111661E-03  mag=    40.0000
       N       E                     dE             d eps       ncg     rms          rms(c)
DAV:   1    -0.125632452942E+04   -0.16061E-03   -0.41799E-02 43260   0.287E-01    0.645E-02
DAV:   2    -0.125632459115E+04   -0.61735E-04   -0.12181E-03 46308   0.532E-02    0.336E-02
DAV:   3    -0.125632458574E+04    0.54096E-05   -0.63884E-05 23424   0.193E-02
  30 F= -.12563246E+04 E0= -.12563246E+04  d E =-.232532E-03  mag=    40.0000
       N       E                     dE             d eps       ncg     rms          rms(c)
DAV:   1    -0.125632471315E+04   -0.12199E-03   -0.11766E-02 43980   0.156E-01    0.578E-02
DAV:   2    -0.125632469314E+04    0.20011E-04   -0.50386E-04 41028   0.393E-02
  31 F= -.12563247E+04 E0= -.12563247E+04  d E =-.107392E-03  mag=    40.0000
       N       E                     dE             d eps       ncg     rms          rms(c)
DAV:   1    -0.125632476082E+04   -0.47676E-04   -0.26086E-02 43248   0.225E-01    0.465E-02
DAV:   2    -0.125632482912E+04   -0.68300E-04   -0.77640E-04 49596   0.460E-02
  32 F= -.12563248E+04 E0= -.12563248E+04  d E =-.135988E-03  mag=    40.0000
       N       E                     dE             d eps       ncg     rms          rms(c)
DAV:   1    -0.125632490058E+04   -0.13975E-03   -0.15099E-02 43536   0.171E-01    0.437E-02
DAV:   2    -0.125632494127E+04   -0.40694E-04   -0.44588E-04 38340   0.353E-02
  33 F= -.12563249E+04 E0= -.12563249E+04  d E =-.112146E-03  mag=    40.0000
       N       E                     dE             d eps       ncg     rms          rms(c)
DAV:   1    -0.125632499590E+04   -0.95323E-04   -0.12257E-02 43440   0.155E-01    0.480E-02
DAV:   2    -0.125632501750E+04   -0.21598E-04   -0.32384E-04 30876   0.325E-02
  34 F= -.12563250E+04 E0= -.12563250E+04  d E =-.762274E-04  mag=    40.0000
       N       E                     dE             d eps       ncg     rms          rms(c)
DAV:   1    -0.125632492908E+04    0.66821E-04   -0.79948E-03 43104   0.125E-01    0.285E-02
DAV:   2    -0.125632494573E+04   -0.16652E-04   -0.21713E-04 28476   0.272E-02
  35 F= -.12563249E+04 E0= -.12563249E+04  d E =0.717675E-04  mag=    40.0000
       N       E                     dE             d eps       ncg     rms          rms(c)
DAV:   1    -0.125632501057E+04   -0.81492E-04   -0.65440E-02 43152   0.356E-01    0.517E-02
DAV:   2    -0.125632517420E+04   -0.16363E-03   -0.18007E-03 52080   0.659E-02    0.429E-02
DAV:   3    -0.125632517129E+04    0.29128E-05   -0.66135E-05 23052   0.163E-02
  36 F= -.12563252E+04 E0= -.12563252E+04  d E =-.225558E-03  mag=    40.0000
       N       E                     dE             d eps       ncg     rms          rms(c)
DAV:   1    -0.125632526570E+04   -0.91502E-04   -0.50092E-02 43128   0.313E-01    0.598E-02
DAV:   2    -0.125632537444E+04   -0.10873E-03   -0.14478E-03 53148   0.598E-02    0.518E-02
DAV:   3    -0.125632536737E+04    0.70675E-05   -0.75659E-05 24204   0.181E-02
  37 F= -.12563254E+04 E0= -.12563254E+04  d E =-.196082E-03  mag=    40.0000
       N       E                     dE             d eps       ncg     rms          rms(c)
DAV:   1    -0.125632541410E+04   -0.39660E-04   -0.11549E-01 43080   0.473E-01    0.777E-02
DAV:   2    -0.125632566563E+04   -0.25153E-03   -0.29724E-03 50172   0.782E-02    0.504E-02
DAV:   3    -0.125632565181E+04    0.13824E-04   -0.86281E-05 24720   0.182E-02
  38 F= -.12563257E+04 E0= -.12563257E+04  d E =-.284437E-03  mag=    40.0000
       N       E                     dE             d eps       ncg     rms          rms(c)
DAV:   1    -0.125632570320E+04   -0.37575E-04   -0.98882E-03 43512   0.140E-01    0.478E-02
DAV:   2    -0.125632570317E+04    0.32727E-07   -0.36870E-04 39360   0.375E-02
  39 F= -.12563257E+04 E0= -.12563257E+04  d E =-.513657E-04  mag=    40.0000
       N       E                     dE             d eps       ncg     rms          rms(c)
DAV:   1    -0.125632555281E+04    0.15039E-03   -0.22249E-02 43200   0.210E-01    0.517E-02
DAV:   2    -0.125632559128E+04   -0.38463E-04   -0.74428E-04 46848   0.473E-02
  40 F= -.12563256E+04 E0= -.12563256E+04  d E =0.111897E-03  mag=    40.0000
       N       E                     dE             d eps       ncg     rms          rms(c)
DAV:   1    -0.125632560238E+04   -0.49572E-04   -0.74644E-02 43152   0.381E-01    0.587E-02
DAV:   2    -0.125632579231E+04   -0.18993E-03   -0.20512E-03 47664   0.656E-02    0.374E-02
DAV:   3    -0.125632579051E+04    0.18044E-05   -0.53131E-05 23256   0.147E-02
  41 F= -.12563258E+04 E0= -.12563258E+04  d E =-.199233E-03  mag=    40.0000
       N       E                     dE             d eps       ncg     rms          rms(c)
DAV:   1    -0.125632592028E+04   -0.12796E-03   -0.23238E-02 43200   0.215E-01    0.582E-02
DAV:   2    -0.125632593457E+04   -0.14298E-04   -0.76417E-04 48828   0.454E-02
  42 F= -.12563259E+04 E0= -.12563259E+04  d E =-.144065E-03  mag=    40.0000
       N       E                     dE             d eps       ncg     rms          rms(c)
DAV:   1    -0.125632596799E+04   -0.47713E-04   -0.18958E-02 43296   0.184E-01    0.782E-02
DAV:   2    -0.125632594709E+04    0.20897E-04   -0.10742E-03 52836   0.607E-02    0.881E-02
DAV:   3    -0.125632593540E+04    0.11690E-04   -0.15858E-04 27996   0.236E-02
  43 F= -.12563259E+04 E0= -.12563259E+04  d E =-.828790E-06  mag=    40.0000
       N       E                     dE             d eps       ncg     rms          rms(c)
DAV:   1    -0.125632603895E+04   -0.91863E-04   -0.13498E-02 43248   0.164E-01    0.653E-02
DAV:   2    -0.125632605108E+04   -0.12126E-04   -0.70705E-04 46824   0.426E-02
  44 F= -.12563261E+04 E0= -.12563261E+04  d E =-.115678E-03  mag=    40.0000
       N       E                     dE             d eps       ncg     rms          rms(c)
DAV:   1    -0.125632616204E+04   -0.12309E-03   -0.71589E-03 44244   0.128E-01    0.671E-02
DAV:   2    -0.125632611231E+04    0.49738E-04   -0.38673E-04 38460   0.394E-02
  45 F= -.12563261E+04 E0= -.12563261E+04  d E =-.612251E-04  mag=    40.0000
       N       E                     dE             d eps       ncg     rms          rms(c)
DAV:   1    -0.125632612521E+04    0.36831E-04   -0.75109E-03 43236   0.121E-01    0.481E-02
DAV:   2    -0.125632612660E+04   -0.13861E-05   -0.31719E-04 38088   0.391E-02
  46 F= -.12563261E+04 E0= -.12563261E+04  d E =-.142931E-04  mag=    40.0000
       N       E                     dE             d eps       ncg     rms          rms(c)
DAV:   1    -0.125632625979E+04   -0.13457E-03   -0.24137E-02 43512   0.225E-01    0.109E-01
DAV:   2    -0.125632621757E+04    0.42213E-04   -0.19712E-03 60648   0.780E-02    0.104E-01
DAV:   3    -0.125632616078E+04    0.56790E-04   -0.24469E-04 33360   0.319E-02
  47 F= -.12563262E+04 E0= -.12563262E+04  d E =-.341853E-04  mag=    40.0000
       N       E                     dE             d eps       ncg     rms          rms(c)
DAV:   1    -0.125632639554E+04   -0.17796E-03   -0.60931E-03 43728   0.119E-01    0.922E-02
DAV:   2    -0.125632627528E+04    0.12026E-03   -0.81158E-04 53244   0.504E-02    0.630E-02
DAV:   3    -0.125632625328E+04    0.21995E-04   -0.14236E-04 30252   0.286E-02
  48 F= -.12563263E+04 E0= -.12563263E+04  d E =-.924973E-04  mag=    40.0000
       N       E                     dE             d eps       ncg     rms          rms(c)
DAV:   1    -0.125632630451E+04   -0.29230E-04   -0.67590E-02 43032   0.366E-01    0.123E-01
DAV:   2    -0.125632637434E+04   -0.69835E-04   -0.35453E-03 60300   0.112E-01    0.147E-01
DAV:   3    -0.125632632454E+04    0.49800E-04   -0.45467E-04 43032   0.388E-02
  49 F= -.12563263E+04 E0= -.12563263E+04  d E =-.712585E-04  mag=    40.0000
       N       E                     dE             d eps       ncg     rms          rms(c)
DAV:   1    -0.125632642099E+04   -0.46655E-04   -0.17544E-02 43104   0.184E-01    0.727E-02
DAV:   2    -0.125632650422E+04   -0.83230E-04   -0.17759E-03 60792   0.731E-02    0.956E-02
DAV:   3    -0.125632645389E+04    0.50339E-04   -0.17936E-04 29268   0.290E-02
  50 F= -.12563265E+04 E0= -.12563265E+04  d E =-.129347E-03  mag=    40.0000
       N       E                     dE             d eps       ncg     rms          rms(c)
DAV:   1    -0.125632650963E+04   -0.54003E-05   -0.28324E-02 43164   0.236E-01    0.542E-02
DAV:   2    -0.125632657360E+04   -0.63977E-04   -0.98643E-04 52632   0.522E-02
  51 F= -.12563266E+04 E0= -.12563266E+04  d E =-.119716E-03  mag=    40.0000
