       N       E                     dE             d eps       ncg     rms          rms(c)
DAV:   1     0.111257756070E+05    0.11126E+05   -0.39380E+05 43008   0.125E+03
DAV:   2     0.103975863383E+04   -0.10086E+05   -0.92776E+04 44400   0.351E+02
DAV:   3    -0.142532509963E+04   -0.24651E+04   -0.23844E+04 48240   0.181E+02
DAV:   4    -0.164693682078E+04   -0.22161E+03   -0.21812E+03 64992   0.606E+01
DAV:   5    -0.165539831562E+04   -0.84615E+01   -0.83423E+01 67668   0.137E+01
DAV:   6    -0.165578717873E+04   -0.38886E+00   -0.38513E+00 68028   0.251E+00
DAV:   7    -0.165581098350E+04   -0.23805E-01   -0.23688E-01 68364   0.623E-01
DAV:   8    -0.165581272151E+04   -0.17380E-02   -0.17334E-02 63528   0.144E-01
DAV:   9    -0.165581285988E+04   -0.13837E-03   -0.13812E-03 44268   0.419E-02
DAV:  10    -0.165581287194E+04   -0.12064E-04   -0.12025E-04 36288   0.158E-02
DAV:  11    -0.165581287437E+04   -0.24242E-05   -0.24075E-05 33816   0.993E-03
DAV:  12    -0.165581287563E+04   -0.12617E-05   -0.12530E-05 32904   0.713E-03    0.166E+02
DAV:  13    -0.122170211924E+04    0.43411E+03   -0.25234E+03 63924   0.812E+01    0.105E+02
DAV:  14    -0.126052348690E+04   -0.38821E+02   -0.68582E+02 66948   0.414E+01    0.689E+01
DAV:  15    -0.125564833017E+04    0.48752E+01   -0.80077E+01 60408   0.135E+01    0.419E+01
DAV:  16    -0.126067036042E+04   -0.50220E+01   -0.66018E+01 64728   0.160E+01    0.284E+01
DAV:  17    -0.125621650851E+04    0.44539E+01   -0.22206E+01 63708   0.787E+00    0.125E+01
DAV:  18    -0.125577931833E+04    0.43719E+00   -0.78249E+00 61836   0.504E+00    0.596E+00
DAV:  19    -0.125557931173E+04    0.20001E+00   -0.22444E+00 62952   0.268E+00    0.185E+00
DAV:  20    -0.125560531826E+04   -0.26007E-01   -0.23976E-01 62712   0.113E+00    0.145E+00
DAV:  21    -0.125561739320E+04   -0.12075E-01   -0.10273E-01 63264   0.703E-01    0.830E-01
DAV:  22    -0.125561591620E+04    0.14770E-02   -0.16530E-02 59940   0.247E-01    0.411E-01
DAV:  23    -0.125561573388E+04    0.18233E-03   -0.13153E-02 62928   0.176E-01    0.255E-01
DAV:  24    -0.125561591966E+04   -0.18579E-03   -0.37549E-03 59844   0.103E-01    0.132E-01
DAV:  25    -0.125561584344E+04    0.76228E-04   -0.78117E-04 52056   0.524E-02
   1 F= -.12556158E+04 E0= -.12556158E+04  d E =-.125562E+04  mag=    39.9992
       N       E                     dE             d eps       ncg     rms          rms(c)
DAV:   1    -0.125507091078E+04    0.54501E+00   -0.22846E+02 43008   0.203E+01    0.913E+00
DAV:   2    -0.125579440160E+04   -0.72349E+00   -0.10292E+01 63648   0.790E+00    0.104E+01
DAV:   3    -0.125592134161E+04   -0.12694E+00   -0.20639E+00 59340   0.245E+00    0.488E+00
DAV:   4    -0.125584038447E+04    0.80957E-01   -0.29230E-01 63324   0.844E-01    0.338E+00
DAV:   5    -0.125577462805E+04    0.65756E-01   -0.26786E-01 56124   0.917E-01    0.163E+00
DAV:   6    -0.125576485716E+04    0.97709E-02   -0.12095E-01 63852   0.744E-01    0.687E-01
DAV:   7    -0.125576660678E+04   -0.17496E-02   -0.52916E-02 61596   0.394E-01    0.362E-01
DAV:   8    -0.125576660168E+04    0.50998E-05   -0.55313E-03 59100   0.139E-01    0.226E-01
DAV:   9    -0.125576644901E+04    0.15267E-03   -0.13809E-03 61032   0.676E-02    0.155E-01
DAV:  10    -0.125576645959E+04   -0.10574E-04   -0.49997E-04 46692   0.377E-02
   2 F= -.12557665E+04 E0= -.12557665E+04  d E =-.150616E+00  mag=    39.9995
       N       E                     dE             d eps       ncg     rms          rms(c)
DAV:   1    -0.125615253544E+04   -0.38609E+00   -0.62755E+01 43008   0.109E+01    0.408E+00
DAV:   2    -0.125622559374E+04   -0.73058E-01   -0.33059E+00 61296   0.410E+00    0.554E+00
DAV:   3    -0.125622828969E+04   -0.26960E-02   -0.65528E-01 60816   0.129E+00    0.317E+00
DAV:   4    -0.125619817195E+04    0.30118E-01   -0.11327E-01 63912   0.540E-01    0.245E+00
DAV:   5    -0.125618514541E+04    0.13027E-01   -0.10985E-01 57084   0.608E-01    0.117E+00
DAV:   6    -0.125617530497E+04    0.98404E-02   -0.55085E-02 63540   0.498E-01    0.603E-01
DAV:   7    -0.125617587206E+04   -0.56708E-03   -0.26598E-02 62316   0.293E-01    0.370E-01
DAV:   8    -0.125617602337E+04   -0.15131E-03   -0.25033E-03 56472   0.932E-02    0.205E-01
DAV:   9    -0.125617591669E+04    0.10668E-03   -0.39090E-04 41160   0.388E-02    0.144E-01
DAV:  10    -0.125617590004E+04    0.16649E-04   -0.54043E-04 45372   0.364E-02
   3 F= -.12561759E+04 E0= -.12561759E+04  d E =-.409440E+00  mag=    39.9996
       N       E                     dE             d eps       ncg     rms          rms(c)
DAV:   1    -0.125621296488E+04   -0.37048E-01   -0.75457E+00 43092   0.388E+00    0.204E+00
DAV:   2    -0.125621395180E+04   -0.98692E-03   -0.53162E-01 61176   0.136E+00    0.196E+00
DAV:   3    -0.125620533017E+04    0.86216E-02   -0.81908E-02 59880   0.539E-01    0.989E-01
DAV:   4    -0.125620340818E+04    0.19220E-02   -0.20945E-02 61368   0.223E-01    0.696E-01
DAV:   5    -0.125620263045E+04    0.77773E-03   -0.43488E-03 58836   0.134E-01    0.310E-01
DAV:   6    -0.125620235509E+04    0.27536E-03   -0.40686E-03 63036   0.107E-01    0.116E-01
DAV:   7    -0.125620239698E+04   -0.41894E-04   -0.86639E-04 49656   0.486E-02
   4 F= -.12562024E+04 E0= -.12562024E+04  d E =-.264969E-01  mag=    39.9997
       N       E                     dE             d eps       ncg     rms          rms(c)
DAV:   1    -0.125622547143E+04   -0.23116E-01   -0.33471E+00 43080   0.258E+00    0.111E+00
DAV:   2    -0.125622379875E+04    0.16727E-02   -0.21736E-01 63768   0.101E+00    0.130E+00
DAV:   3    -0.125622163809E+04    0.21607E-02   -0.42439E-02 60672   0.363E-01    0.810E-01
DAV:   4    -0.125621974663E+04    0.18915E-02   -0.76890E-03 62472   0.131E-01    0.566E-01
DAV:   5    -0.125621892066E+04    0.82597E-03   -0.53877E-03 57012   0.135E-01    0.318E-01
DAV:   6    -0.125621834942E+04    0.57124E-03   -0.27057E-03 61788   0.114E-01    0.111E-01
DAV:   7    -0.125621841415E+04   -0.64737E-04   -0.15044E-03 61716   0.661E-02    0.854E-02
DAV:   8    -0.125621841102E+04    0.31364E-05   -0.11046E-04 26160   0.234E-02
   5 F= -.12562184E+04 E0= -.12562184E+04  d E =-.160140E-01  mag=    39.9998
       N       E                     dE             d eps       ncg     rms          rms(c)
DAV:   1    -0.125622477973E+04   -0.63656E-02   -0.32308E+00 43032   0.249E+00    0.866E-01
DAV:   2    -0.125623287888E+04   -0.80991E-02   -0.15126E-01 62184   0.775E-01    0.103E+00
DAV:   3    -0.125623253473E+04    0.34415E-03   -0.22476E-02 60480   0.256E-01    0.600E-01
DAV:   4    -0.125623129742E+04    0.12373E-02   -0.56329E-03 62388   0.119E-01    0.446E-01
DAV:   5    -0.125623080867E+04    0.48874E-03   -0.37910E-03 55488   0.110E-01    0.213E-01
DAV:   6    -0.125623050041E+04    0.30827E-03   -0.19353E-03 64992   0.925E-02    0.910E-02
DAV:   7    -0.125623053183E+04   -0.31421E-04   -0.10270E-03 60636   0.590E-02    0.764E-02
DAV:   8    -0.125623053112E+04    0.70452E-06   -0.73907E-05 26760   0.202E-02
   6 F= -.12562305E+04 E0= -.12562305E+04  d E =-.121201E-01  mag=    39.9998
       N       E                     dE             d eps       ncg     rms          rms(c)
DAV:   1    -0.125623985538E+04   -0.93235E-02   -0.72612E-01 43248   0.119E+00    0.482E-01
DAV:   2    -0.125623978483E+04    0.70547E-04   -0.45024E-02 63216   0.419E-01    0.588E-01
DAV:   3    -0.125623934472E+04    0.44011E-03   -0.70505E-03 60384   0.139E-01    0.352E-01
DAV:   4    -0.125623893489E+04    0.40983E-03   -0.24341E-03 58416   0.796E-02    0.271E-01
DAV:   5    -0.125623887923E+04    0.55657E-04   -0.96609E-04 51528   0.602E-02
   7 F= -.12562389E+04 E0= -.12562389E+04  d E =-.834810E-02  mag=    39.9999
       N       E                     dE             d eps       ncg     rms          rms(c)
DAV:   1    -0.125624082949E+04   -0.18946E-02   -0.17206E+00 43152   0.178E+00    0.493E-01
DAV:   2    -0.125624761955E+04   -0.67901E-02   -0.54194E-02 55800   0.357E-01    0.320E-01
DAV:   3    -0.125624811706E+04   -0.49751E-03   -0.33559E-03 59196   0.994E-02    0.166E-01
DAV:   4    -0.125624801489E+04    0.10216E-03   -0.34689E-04 40152   0.363E-02    0.107E-01
DAV:   5    -0.125624795840E+04    0.56493E-04   -0.49106E-04 41124   0.361E-02
   8 F= -.12562480E+04 E0= -.12562480E+04  d E =-.907917E-02  mag=    39.9999
       N       E                     dE             d eps       ncg     rms          rms(c)
DAV:   1    -0.125624691031E+04    0.11046E-02   -0.23119E+00 43032   0.206E+00    0.627E-01
DAV:   2    -0.125625630403E+04   -0.93937E-02   -0.72505E-02 54660   0.412E-01    0.407E-01
DAV:   3    -0.125625702064E+04   -0.71661E-03   -0.45707E-03 60696   0.119E-01    0.183E-01
DAV:   4    -0.125625685827E+04    0.16237E-03   -0.70177E-04 50472   0.474E-02    0.128E-01
DAV:   5    -0.125625679076E+04    0.67509E-04   -0.50546E-04 46668   0.372E-02
   9 F= -.12562568E+04 E0= -.12562568E+04  d E =-.883236E-02  mag=    39.9999
       N       E                     dE             d eps       ncg     rms          rms(c)
DAV:   1    -0.125625858614E+04   -0.17279E-02   -0.13461E+00 43104   0.159E+00    0.516E-01
DAV:   2    -0.125626214454E+04   -0.35584E-02   -0.50955E-02 57996   0.369E-01    0.402E-01
DAV:   3    -0.125626209859E+04    0.45944E-04   -0.52076E-03 59148   0.135E-01    0.165E-01
DAV:   4    -0.125626199693E+04    0.10166E-03   -0.61637E-04 46176   0.457E-02    0.126E-01
DAV:   5    -0.125626196991E+04    0.27028E-04   -0.23265E-04 31704   0.320E-02
  10 F= -.12562620E+04 E0= -.12562620E+04  d E =-.517914E-02  mag=    39.9999
       N       E                     dE             d eps       ncg     rms          rms(c)
DAV:   1    -0.125626232959E+04   -0.33266E-03   -0.11015E-01 43440   0.467E-01    0.251E-01
DAV:   2    -0.125626220240E+04    0.12719E-03   -0.94736E-03 61584   0.186E-01    0.284E-01
DAV:   3    -0.125626199897E+04    0.20343E-03   -0.14518E-03 59568   0.690E-02    0.164E-01
DAV:   4    -0.125626193397E+04    0.65001E-04   -0.48982E-04 43956   0.341E-02
  11 F= -.12562619E+04 E0= -.12562619E+04  d E =0.359376E-04  mag=    39.9999
       N       E                     dE             d eps       ncg     rms          rms(c)
DAV:   1    -0.125626308477E+04   -0.10858E-02   -0.69931E-01 43200   0.116E+00    0.302E-01
DAV:   2    -0.125626477435E+04   -0.16896E-02   -0.27195E-02 56880   0.284E-01    0.332E-01
DAV:   3    -0.125626464778E+04    0.12657E-03   -0.24781E-03 59208   0.893E-02    0.182E-01
DAV:   4    -0.125626453186E+04    0.11592E-03   -0.70869E-04 51792   0.472E-02    0.152E-01
DAV:   5    -0.125626450359E+04    0.28263E-04   -0.24005E-04 31632   0.293E-02
  12 F= -.12562645E+04 E0= -.12562645E+04  d E =-.256963E-02  mag=    39.9999
       N       E                     dE             d eps       ncg     rms          rms(c)
DAV:   1    -0.125626594563E+04   -0.14138E-02   -0.13232E-01 43392   0.508E-01    0.177E-01
DAV:   2    -0.125626606276E+04   -0.11714E-03   -0.65393E-03 59880   0.148E-01    0.195E-01
DAV:   3    -0.125626597700E+04    0.85765E-04   -0.83091E-04 51384   0.512E-02
  13 F= -.12562660E+04 E0= -.12562660E+04  d E =-.147341E-02  mag=    40.0000
       N       E                     dE             d eps       ncg     rms          rms(c)
DAV:   1    -0.125626683450E+04   -0.77174E-03   -0.39808E-01 43272   0.868E-01    0.211E-01
DAV:   2    -0.125626800388E+04   -0.11694E-02   -0.12439E-02 55044   0.168E-01    0.133E-01
DAV:   3    -0.125626801029E+04   -0.64106E-05   -0.67213E-04 52764   0.480E-02
  14 F= -.12562680E+04 E0= -.12562680E+04  d E =-.203329E-02  mag=    40.0000
       N       E                     dE             d eps       ncg     rms          rms(c)
DAV:   1    -0.125626893868E+04   -0.93480E-03   -0.22370E-01 43272   0.653E-01    0.138E-01
DAV:   2    -0.125626952316E+04   -0.58449E-03   -0.68212E-03 53760   0.127E-01    0.974E-02
DAV:   3    -0.125626951552E+04    0.76395E-05   -0.37325E-04 37776   0.333E-02
  15 F= -.12562695E+04 E0= -.12562695E+04  d E =-.150523E-02  mag=    40.0000
       N       E                     dE             d eps       ncg     rms          rms(c)
DAV:   1    -0.125627040101E+04   -0.87785E-03   -0.15480E-01 43320   0.542E-01    0.134E-01
DAV:   2    -0.125627074067E+04   -0.33966E-03   -0.51585E-03 56940   0.110E-01    0.105E-01
DAV:   3    -0.125627069789E+04    0.42783E-04   -0.28075E-04 36672   0.361E-02
  16 F= -.12562707E+04 E0= -.12562707E+04  d E =-.118236E-02  mag=    40.0000
       N       E                     dE             d eps       ncg     rms          rms(c)
DAV:   1    -0.125627136136E+04   -0.62069E-03   -0.20461E-01 43272   0.623E-01    0.133E-01
DAV:   2    -0.125627191484E+04   -0.55348E-03   -0.60313E-03 54204   0.116E-01    0.831E-02
DAV:   3    -0.125627191141E+04    0.34318E-05   -0.29303E-04 37476   0.311E-02
  17 F= -.12562719E+04 E0= -.12562719E+04  d E =-.121352E-02  mag=    40.0000
       N       E                     dE             d eps       ncg     rms          rms(c)
DAV:   1    -0.125627243929E+04   -0.52446E-03   -0.11913E-01 43344   0.477E-01    0.928E-02
DAV:   2    -0.125627278723E+04   -0.34794E-03   -0.38038E-03 57780   0.972E-02    0.963E-02
DAV:   3    -0.125627277093E+04    0.16296E-04   -0.16131E-04 28140   0.267E-02
  18 F= -.12562728E+04 E0= -.12562728E+04  d E =-.859528E-03  mag=    40.0000
       N       E                     dE             d eps       ncg     rms          rms(c)
DAV:   1    -0.125627257755E+04    0.20968E-03   -0.76994E-01 43080   0.121E+00    0.225E-01
DAV:   2    -0.125627484258E+04   -0.22650E-02   -0.22066E-02 51276   0.213E-01    0.131E-01
DAV:   3    -0.125627488359E+04   -0.41014E-04   -0.10126E-03 56544   0.483E-02    0.734E-02
DAV:   4    -0.125627483190E+04    0.51693E-04   -0.10193E-04 25980   0.212E-02
  19 F= -.12562748E+04 E0= -.12562748E+04  d E =-.206096E-02  mag=    40.0000
       N       E                     dE             d eps       ncg     rms          rms(c)
DAV:   1    -0.125627492904E+04   -0.45445E-04   -0.55075E-01 43188   0.102E+00    0.202E-01
DAV:   2    -0.125627625738E+04   -0.13283E-02   -0.16254E-02 54636   0.191E-01    0.140E-01
DAV:   3    -0.125627626893E+04   -0.11552E-04   -0.99621E-04 55872   0.529E-02
  20 F= -.12562763E+04 E0= -.12562763E+04  d E =-.143703E-02  mag=    40.0000
       N       E                     dE             d eps       ncg     rms          rms(c)
DAV:   1    -0.125627418981E+04    0.20676E-02   -0.13608E+00 43032   0.161E+00    0.280E-01
DAV:   2    -0.125627821352E+04   -0.40237E-02   -0.38816E-02 51060   0.286E-01    0.184E-01
DAV:   3    -0.125627828199E+04   -0.68475E-04   -0.16937E-03 61128   0.596E-02    0.106E-01
DAV:   4    -0.125627819725E+04    0.84744E-04   -0.13406E-04 27840   0.239E-02
  21 F= -.12562782E+04 E0= -.12562782E+04  d E =-.192831E-02  mag=    40.0000
       N       E                     dE             d eps       ncg     rms          rms(c)
DAV:   1    -0.125627514511E+04    0.31369E-02   -0.63981E-01 43068   0.111E+00    0.205E-01
DAV:   2    -0.125627706238E+04   -0.19173E-02   -0.20552E-02 52032   0.212E-01    0.141E-01
DAV:   3    -0.125627707242E+04   -0.10044E-04   -0.97484E-04 56052   0.544E-02
  22 F= -.12562771E+04 E0= -.12562771E+04  d E =0.112483E-02  mag=    40.0000
       N       E                     dE             d eps       ncg     rms          rms(c)
DAV:   1    -0.125627715681E+04   -0.94437E-04   -0.15420E-01 43200   0.547E-01    0.116E-01
DAV:   2    -0.125627760119E+04   -0.44438E-03   -0.55313E-03 57048   0.118E-01    0.109E-01
DAV:   3    -0.125627758920E+04    0.11997E-04   -0.24786E-04 30408   0.332E-02
  23 F= -.12562776E+04 E0= -.12562776E+04  d E =-.516778E-03  mag=    40.0000
       N       E                     dE             d eps       ncg     rms          rms(c)
DAV:   1    -0.125627774535E+04   -0.14415E-03   -0.12651E-02 43584   0.159E-01    0.559E-02
DAV:   2    -0.125627777851E+04   -0.33163E-04   -0.87145E-04 53748   0.501E-02
  24 F= -.12562778E+04 E0= -.12562778E+04  d E =-.189315E-03  mag=    40.0000
       N       E                     dE             d eps       ncg     rms          rms(c)
DAV:   1    -0.125627798104E+04   -0.23569E-03   -0.71937E-02 43296   0.373E-01    0.761E-02
DAV:   2    -0.125627818402E+04   -0.20298E-03   -0.23312E-03 57600   0.746E-02    0.599E-02
DAV:   3    -0.125627817002E+04    0.13998E-04   -0.10149E-04 26004   0.217E-02
  25 F= -.12562782E+04 E0= -.12562782E+04  d E =-.391509E-03  mag=    40.0000
       N       E                     dE             d eps       ncg     rms          rms(c)
DAV:   1    -0.125627822220E+04   -0.38180E-04   -0.15078E-03 40008   0.546E-02    0.187E-02
DAV:   2    -0.125627822435E+04   -0.21500E-05   -0.45573E-05 22656   0.121E-02
  26 F= -.12562782E+04 E0= -.12562782E+04  d E =-.543284E-04  mag=    40.0000
       N       E                     dE             d eps       ncg     rms          rms(c)
DAV:   1    -0.125627841590E+04   -0.19370E-03   -0.73286E-02 43272   0.375E-01    0.624E-02
DAV:   2    -0.125627862976E+04   -0.21385E-03   -0.21392E-03 53952   0.678E-02    0.421E-02
DAV:   3    -0.125627863159E+04   -0.18275E-05   -0.70072E-05 23736   0.165E-02
  27 F= -.12562786E+04 E0= -.12562786E+04  d E =-.407236E-03  mag=    40.0000
       N       E                     dE             d eps       ncg     rms          rms(c)
DAV:   1    -0.125627877534E+04   -0.14559E-03   -0.60905E-02 43296   0.345E-01    0.628E-02
DAV:   2    -0.125627893855E+04   -0.16321E-03   -0.19123E-03 56628   0.700E-02    0.665E-02
DAV:   3    -0.125627892667E+04    0.11882E-04   -0.84630E-05 24660   0.193E-02
  28 F= -.12562789E+04 E0= -.12562789E+04  d E =-.295086E-03  mag=    40.0000
       N       E                     dE             d eps       ncg     rms          rms(c)
DAV:   1    -0.125627904068E+04   -0.10213E-03   -0.67786E-03 43656   0.116E-01    0.391E-02
DAV:   2    -0.125627903952E+04    0.11692E-05   -0.22648E-04 29424   0.293E-02
  29 F= -.12562790E+04 E0= -.12562790E+04  d E =-.112845E-03  mag=    40.0000
       N       E                     dE             d eps       ncg     rms          rms(c)
DAV:   1    -0.125627929931E+04   -0.25863E-03   -0.98796E-02 43248   0.443E-01    0.125E-01
DAV:   2    -0.125627939072E+04   -0.91413E-04   -0.34697E-03 56820   0.904E-02    0.840E-02
DAV:   3    -0.125627936971E+04    0.21012E-04   -0.22825E-04 34524   0.342E-02
  30 F= -.12562794E+04 E0= -.12562794E+04  d E =-.330197E-03  mag=    40.0000
       N       E                     dE             d eps       ncg     rms          rms(c)
DAV:   1    -0.125627955296E+04   -0.16223E-03   -0.26694E-02 43320   0.230E-01    0.596E-02
DAV:   2    -0.125627959559E+04   -0.42638E-04   -0.87304E-04 51120   0.473E-02
  31 F= -.12562796E+04 E0= -.12562796E+04  d E =-.225881E-03  mag=    40.0000
       N       E                     dE             d eps       ncg     rms          rms(c)
DAV:   1    -0.125627991083E+04   -0.35787E-03   -0.43504E-02 43704   0.300E-01    0.151E-01
DAV:   2    -0.125627971264E+04    0.19819E-03   -0.21590E-03 59940   0.780E-02    0.969E-02
DAV:   3    -0.125627967204E+04    0.40599E-04   -0.28932E-04 38280   0.401E-02
  32 F= -.12562797E+04 E0= -.12562797E+04  d E =-.764453E-04  mag=    40.0000
       N       E                     dE             d eps       ncg     rms          rms(c)
DAV:   1    -0.125627983097E+04   -0.11834E-03   -0.11491E-02 43596   0.150E-01    0.461E-02
DAV:   2    -0.125627984822E+04   -0.17250E-04   -0.49903E-04 38112   0.385E-02
  33 F= -.12562798E+04 E0= -.12562798E+04  d E =-.176184E-03  mag=    40.0000
       N       E                     dE             d eps       ncg     rms          rms(c)
DAV:   1    -0.125628002424E+04   -0.19326E-03   -0.41610E-03 45612   0.995E-02    0.799E-02
DAV:   2    -0.125627994559E+04    0.78647E-04   -0.57909E-04 43452   0.421E-02
  34 F= -.12562799E+04 E0= -.12562799E+04  d E =-.973674E-04  mag=    40.0000
       N       E                     dE             d eps       ncg     rms          rms(c)
DAV:   1    -0.125628008976E+04   -0.65525E-04   -0.32943E-02 43428   0.258E-01    0.952E-02
DAV:   2    -0.125628006573E+04    0.24036E-04   -0.12849E-03 53712   0.591E-02    0.661E-02
DAV:   3    -0.125628004594E+04    0.19786E-04   -0.10233E-04 25908   0.223E-02
  35 F= -.12562800E+04 E0= -.12562800E+04  d E =-.100350E-03  mag=    40.0000
       N       E                     dE             d eps       ncg     rms          rms(c)
DAV:   1    -0.125628013701E+04   -0.71288E-04   -0.50475E-03 43728   0.991E-02    0.317E-02
DAV:   2    -0.125628013712E+04   -0.10530E-06   -0.18103E-04 23928   0.253E-02
  36 F= -.12562801E+04 E0= -.12562801E+04  d E =-.911795E-04  mag=    40.0000
       N       E                     dE             d eps       ncg     rms          rms(c)
DAV:   1    -0.125628014217E+04   -0.51544E-05   -0.38961E-04 32196   0.291E-02    0.177E-02
DAV:   2    -0.125628014162E+04    0.55146E-06   -0.27368E-05 22548   0.124E-02
  37 F= -.12562801E+04 E0= -.12562801E+04  d E =-.449769E-05  mag=    40.0000
       N       E                     dE             d eps       ncg     rms          rms(c)
DAV:   1    -0.125628026497E+04   -0.12280E-03   -0.43866E-02 43248   0.297E-01    0.967E-02
DAV:   2    -0.125628026232E+04    0.26446E-05   -0.16180E-03 53952   0.677E-02    0.637E-02
DAV:   3    -0.125628024608E+04    0.16244E-04   -0.14105E-04 27828   0.264E-02
  38 F= -.12562802E+04 E0= -.12562802E+04  d E =-.104460E-03  mag=    40.0000
       N       E                     dE             d eps       ncg     rms          rms(c)
DAV:   1    -0.125628037504E+04   -0.11271E-03   -0.10885E-02 43368   0.145E-01    0.434E-02
DAV:   2    -0.125628039201E+04   -0.16969E-04   -0.48057E-04 36396   0.376E-02
  39 F= -.12562804E+04 E0= -.12562804E+04  d E =-.145928E-03  mag=    40.0000
       N       E                     dE             d eps       ncg     rms          rms(c)
DAV:   1    -0.125628046496E+04   -0.89922E-04   -0.47427E-03 44100   0.985E-02    0.410E-02
DAV:   2    -0.125628045308E+04    0.11875E-04   -0.16354E-04 25980   0.239E-02
  40 F= -.12562805E+04 E0= -.12562805E+04  d E =-.610778E-04  mag=    40.0000
       N       E                     dE             d eps       ncg     rms          rms(c)
DAV:   1    -0.125628054397E+04   -0.79011E-04   -0.13946E-02 43368   0.168E-01    0.583E-02
DAV:   2    -0.125628053034E+04    0.13630E-04   -0.48831E-04 40680   0.373E-02
  41 F= -.12562805E+04 E0= -.12562805E+04  d E =-.772563E-04  mag=    40.0000
