       N       E                     dE             d eps       ncg     rms          rms(c)
DAV:   1     0.111255486580E+05    0.11126E+05   -0.39380E+05 43008   0.125E+03
DAV:   2     0.104316133228E+04   -0.10082E+05   -0.92774E+04 44364   0.351E+02
DAV:   3    -0.142426840361E+04   -0.24674E+04   -0.23867E+04 48420   0.181E+02
DAV:   4    -0.164668476815E+04   -0.22242E+03   -0.21896E+03 64944   0.607E+01
DAV:   5    -0.165514300560E+04   -0.84582E+01   -0.83394E+01 67680   0.137E+01
DAV:   6    -0.165553413217E+04   -0.39113E+00   -0.38737E+00 67992   0.252E+00
DAV:   7    -0.165555823735E+04   -0.24105E-01   -0.23988E-01 68256   0.627E-01
DAV:   8    -0.165556000727E+04   -0.17699E-02   -0.17653E-02 63480   0.146E-01
DAV:   9    -0.165556014849E+04   -0.14122E-03   -0.14097E-03 44256   0.423E-02
DAV:  10    -0.165556016090E+04   -0.12411E-04   -0.12370E-04 36312   0.159E-02
DAV:  11    -0.165556016335E+04   -0.24503E-05   -0.24339E-05 33720   0.997E-03
DAV:  12    -0.165556016463E+04   -0.12741E-05   -0.12652E-05 32928   0.718E-03    0.166E+02
DAV:  13    -0.122093029314E+04    0.43463E+03   -0.25217E+03 63912   0.812E+01    0.105E+02
DAV:  14    -0.125980031923E+04   -0.38870E+02   -0.68959E+02 66936   0.424E+01    0.695E+01
DAV:  15    -0.125503368161E+04    0.47666E+01   -0.82049E+01 61140   0.145E+01    0.431E+01
DAV:  16    -0.126006950135E+04   -0.50358E+01   -0.67059E+01 65292   0.165E+01    0.299E+01
DAV:  17    -0.125557099197E+04    0.44985E+01   -0.23326E+01 64092   0.823E+00    0.132E+01
DAV:  18    -0.125512542310E+04    0.44557E+00   -0.78126E+00 62460   0.521E+00    0.646E+00
DAV:  19    -0.125486372189E+04    0.26170E+00   -0.24860E+00 63132   0.291E+00    0.205E+00
DAV:  20    -0.125488894555E+04   -0.25224E-01   -0.30674E-01 61848   0.112E+00    0.189E+00
DAV:  21    -0.125490390965E+04   -0.14964E-01   -0.87562E-02 62436   0.538E-01    0.657E-01
DAV:  22    -0.125490393080E+04   -0.21147E-04   -0.15612E-02 54528   0.215E-01    0.397E-01
DAV:  23    -0.125490432270E+04   -0.39190E-03   -0.12749E-02 63612   0.180E-01    0.246E-01
DAV:  24    -0.125490438302E+04   -0.60321E-04   -0.33642E-03 57804   0.100E-01    0.128E-01
DAV:  25    -0.125490433993E+04    0.43095E-04   -0.10371E-03 57864   0.534E-02    0.946E-02
DAV:  26    -0.125490434541E+04   -0.54841E-05   -0.35743E-04 37836   0.290E-02
   1 F= -.12549043E+04 E0= -.12549043E+04  d E =-.125490E+04  mag=    39.9917
       N       E                     dE             d eps       ncg     rms          rms(c)
DAV:   1    -0.125501336971E+04   -0.10903E+00   -0.40075E+02 43008   0.274E+01    0.998E+00
DAV:   2    -0.125534513898E+04   -0.33177E+00   -0.16268E+01 63216   0.112E+01    0.116E+01
DAV:   3    -0.125565896111E+04   -0.31382E+00   -0.58432E+00 59064   0.366E+00    0.624E+00
DAV:   4    -0.125549063036E+04    0.16833E+00   -0.68478E-01 61404   0.141E+00    0.443E+00
DAV:   5    -0.125535758692E+04    0.13304E+00   -0.44932E-01 57456   0.161E+00    0.272E+00
DAV:   6    -0.125534528799E+04    0.12299E-01   -0.44735E-01 59160   0.128E+00    0.138E+00
DAV:   7    -0.125534941318E+04   -0.41252E-02   -0.22930E-01 57972   0.765E-01    0.700E-01
DAV:   8    -0.125534903134E+04    0.38184E-03   -0.30083E-02 63132   0.290E-01    0.436E-01
DAV:   9    -0.125534833399E+04    0.69734E-03   -0.80549E-03 63852   0.203E-01    0.362E-01
DAV:  10    -0.125534845792E+04   -0.12393E-03   -0.36131E-03 60948   0.107E-01    0.234E-01
DAV:  11    -0.125534845842E+04   -0.50772E-06   -0.10359E-03 57720   0.605E-02    0.110E-01
DAV:  12    -0.125534842567E+04    0.32752E-04   -0.26316E-04 35208   0.384E-02
   2 F= -.12553484E+04 E0= -.12553484E+04  d E =-.444080E+00  mag=    39.9947
       N       E                     dE             d eps       ncg     rms          rms(c)
DAV:   1    -0.125606621572E+04   -0.71776E+00   -0.12512E+02 43008   0.155E+01    0.558E+00
DAV:   2    -0.125617798655E+04   -0.11177E+00   -0.67067E+00 59220   0.601E+00    0.773E+00
DAV:   3    -0.125618303948E+04   -0.50529E-02   -0.17414E+00 60132   0.193E+00    0.501E+00
DAV:   4    -0.125610857845E+04    0.74461E-01   -0.37683E-01 64092   0.998E-01    0.407E+00
DAV:   5    -0.125608648576E+04    0.22093E-01   -0.22905E-01 58992   0.109E+00    0.209E+00
DAV:   6    -0.125606674660E+04    0.19739E-01   -0.26724E-01 62688   0.915E-01    0.138E+00
DAV:   7    -0.125606178265E+04    0.49639E-02   -0.11874E-01 60084   0.538E-01    0.809E-01
DAV:   8    -0.125606215388E+04   -0.37123E-03   -0.14532E-02 60528   0.214E-01    0.489E-01
DAV:   9    -0.125606183589E+04    0.31799E-03   -0.28301E-03 62580   0.108E-01    0.306E-01
DAV:  10    -0.125606152357E+04    0.31233E-03   -0.13511E-03 58488   0.808E-02    0.149E-01
DAV:  11    -0.125606137635E+04    0.14722E-03   -0.13250E-03 62616   0.623E-02    0.106E-01
DAV:  12    -0.125606136992E+04    0.64309E-05   -0.26097E-04 34008   0.270E-02
   3 F= -.12560614E+04 E0= -.12560614E+04  d E =-.712944E+00  mag=    39.9966
       N       E                     dE             d eps       ncg     rms          rms(c)
DAV:   1    -0.125612824479E+04   -0.66868E-01   -0.30199E+01 43008   0.771E+00    0.312E+00
DAV:   2    -0.125618865446E+04   -0.60410E-01   -0.18100E+00 60504   0.254E+00    0.367E+00
DAV:   3    -0.125616268882E+04    0.25966E-01   -0.22147E-01 57984   0.859E-01    0.227E+00
DAV:   4    -0.125614939378E+04    0.13295E-01   -0.87080E-02 57576   0.410E-01    0.162E+00
DAV:   5    -0.125614610207E+04    0.32917E-02   -0.21174E-02 53964   0.291E-01    0.741E-01
DAV:   6    -0.125614386942E+04    0.22327E-02   -0.18243E-02 64500   0.261E-01    0.349E-01
DAV:   7    -0.125614419703E+04   -0.32761E-03   -0.71012E-03 51588   0.116E-01    0.203E-01
DAV:   8    -0.125614416719E+04    0.29841E-04   -0.42444E-04 43476   0.429E-02
   4 F= -.12561442E+04 E0= -.12561442E+04  d E =-.827973E-01  mag=    39.9974
       N       E                     dE             d eps       ncg     rms          rms(c)
DAV:   1    -0.125618707375E+04   -0.42877E-01   -0.13572E+01 43008   0.512E+00    0.184E+00
DAV:   2    -0.125618602204E+04    0.10517E-02   -0.69773E-01 61800   0.205E+00    0.245E+00
DAV:   3    -0.125618907559E+04   -0.30536E-02   -0.21400E-01 58992   0.718E-01    0.165E+00
DAV:   4    -0.125618069742E+04    0.83782E-02   -0.26997E-02 60828   0.249E-01    0.126E+00
DAV:   5    -0.125617500398E+04    0.56934E-02   -0.22868E-02 58356   0.317E-01    0.661E-01
DAV:   6    -0.125617287345E+04    0.21305E-02   -0.22639E-02 61596   0.310E-01    0.327E-01
DAV:   7    -0.125617306153E+04   -0.18808E-03   -0.12186E-02 60240   0.176E-01    0.213E-01
DAV:   8    -0.125617305927E+04    0.22636E-05   -0.10115E-03 54972   0.613E-02    0.118E-01
DAV:   9    -0.125617300892E+04    0.50349E-04   -0.26723E-04 32004   0.438E-02
   5 F= -.12561730E+04 E0= -.12561730E+04  d E =-.288417E-01  mag=    39.9982
       N       E                     dE             d eps       ncg     rms          rms(c)
DAV:   1    -0.125618200721E+04   -0.89479E-02   -0.16643E+01 43008   0.553E+00    0.183E+00
DAV:   2    -0.125621450466E+04   -0.32497E-01   -0.93738E-01 59268   0.195E+00    0.271E+00
DAV:   3    -0.125621245365E+04    0.20510E-02   -0.17314E-01 58668   0.611E-01    0.200E+00
DAV:   4    -0.125620078987E+04    0.11664E-01   -0.45170E-02 62196   0.340E-01    0.170E+00
DAV:   5    -0.125620063851E+04    0.15136E-03   -0.60761E-02 59136   0.386E-01    0.106E+00
DAV:   6    -0.125619577038E+04    0.48681E-02   -0.36960E-02 63504   0.350E-01    0.737E-01
DAV:   7    -0.125619330915E+04    0.24612E-02   -0.24908E-02 61044   0.244E-01    0.485E-01
DAV:   8    -0.125619343697E+04   -0.12782E-03   -0.24972E-03 55764   0.979E-02    0.301E-01
DAV:   9    -0.125619323441E+04    0.20256E-03   -0.74096E-04 52248   0.532E-02    0.201E-01
DAV:  10    -0.125619301709E+04    0.21731E-03   -0.73489E-04 46512   0.414E-02    0.102E-01
DAV:  11    -0.125619296180E+04    0.55291E-04   -0.17903E-04 27156   0.251E-02
   6 F= -.12561930E+04 E0= -.12561930E+04  d E =-.199529E-01  mag=    39.9988
       N       E                     dE             d eps       ncg     rms          rms(c)
DAV:   1    -0.125624104057E+04   -0.48023E-01   -0.40629E+00 43008   0.272E+00    0.106E+00
DAV:   2    -0.125624596829E+04   -0.49277E-02   -0.26435E-01 60132   0.105E+00    0.150E+00
DAV:   3    -0.125624377680E+04    0.21915E-02   -0.46582E-02 58128   0.318E-01    0.111E+00
DAV:   4    -0.125624045726E+04    0.33195E-02   -0.24114E-02 63180   0.247E-01    0.906E-01
DAV:   5    -0.125624041315E+04    0.44102E-04   -0.15384E-02 54648   0.199E-01    0.538E-01
DAV:   6    -0.125623896482E+04    0.14483E-02   -0.76501E-03 63744   0.158E-01    0.370E-01
DAV:   7    -0.125623814891E+04    0.81591E-03   -0.67101E-03 56076   0.120E-01    0.194E-01
DAV:   8    -0.125623813996E+04    0.89489E-05   -0.89134E-04 51408   0.522E-02
   7 F= -.12562381E+04 E0= -.12562381E+04  d E =-.451782E-01  mag=    39.9991
       N       E                     dE             d eps       ncg     rms          rms(c)
DAV:   1    -0.125624275132E+04   -0.46024E-02   -0.34670E+00 43032   0.256E+00    0.611E-01
DAV:   2    -0.125625423482E+04   -0.11484E-01   -0.10339E-01 52176   0.481E-01    0.376E-01
DAV:   3    -0.125625486204E+04   -0.62722E-03   -0.57073E-03 62556   0.123E-01    0.193E-01
DAV:   4    -0.125625465084E+04    0.21120E-03   -0.97404E-04 54864   0.540E-02    0.130E-01
DAV:   5    -0.125625456901E+04    0.81835E-04   -0.60972E-04 50100   0.434E-02
   8 F= -.12562546E+04 E0= -.12562546E+04  d E =-.164290E-01  mag=    39.9993
       N       E                     dE             d eps       ncg     rms          rms(c)
DAV:   1    -0.125626133050E+04   -0.66797E-02   -0.23563E+00 43032   0.211E+00    0.601E-01
DAV:   2    -0.125626667387E+04   -0.53434E-02   -0.73754E-02 55236   0.445E-01    0.410E-01
DAV:   3    -0.125626701842E+04   -0.34455E-03   -0.79684E-03 62952   0.155E-01    0.238E-01
DAV:   4    -0.125626675620E+04    0.26223E-03   -0.12847E-03 61080   0.631E-02    0.147E-01
DAV:   5    -0.125626663469E+04    0.12151E-03   -0.53068E-04 48288   0.411E-02    0.712E-02
DAV:   6    -0.125626661856E+04    0.16127E-04   -0.17412E-04 31800   0.306E-02
   9 F= -.12562666E+04 E0= -.12562666E+04  d E =-.120496E-01  mag=    39.9994
       N       E                     dE             d eps       ncg     rms          rms(c)
DAV:   1    -0.125627115227E+04   -0.45176E-02   -0.72343E-01 43392   0.118E+00    0.317E-01
DAV:   2    -0.125627275690E+04   -0.16046E-02   -0.25984E-02 55560   0.260E-01    0.269E-01
DAV:   3    -0.125627269281E+04    0.64093E-04   -0.23418E-03 59880   0.866E-02    0.136E-01
DAV:   4    -0.125627261338E+04    0.79433E-04   -0.67910E-04 51948   0.491E-02
  10 F= -.12562726E+04 E0= -.12562726E+04  d E =-.599481E-02  mag=    39.9995
       N       E                     dE             d eps       ncg     rms          rms(c)
DAV:   1    -0.125627592424E+04   -0.32314E-02   -0.14895E+00 43104   0.167E+00    0.336E-01
DAV:   2    -0.125628035497E+04   -0.44307E-02   -0.41423E-02 52908   0.303E-01    0.212E-01
DAV:   3    -0.125628053436E+04   -0.17939E-03   -0.24388E-03 62208   0.767E-02    0.114E-01
DAV:   4    -0.125628044284E+04    0.91515E-04   -0.17617E-04 32424   0.302E-02
  11 F= -.12562804E+04 E0= -.12562804E+04  d E =-.782946E-02  mag=    39.9996
       N       E                     dE             d eps       ncg     rms          rms(c)
DAV:   1    -0.125626740264E+04    0.13132E-01   -0.97875E+00 43008   0.429E+00    0.805E-01
DAV:   2    -0.125629559029E+04   -0.28188E-01   -0.26929E-01 50736   0.749E-01    0.465E-01
DAV:   3    -0.125629648853E+04   -0.89824E-03   -0.12317E-02 62616   0.158E-01    0.280E-01
DAV:   4    -0.125629597406E+04    0.51448E-03   -0.14592E-03 59676   0.637E-02    0.180E-01
DAV:   5    -0.125629569279E+04    0.28127E-03   -0.12512E-03 52644   0.635E-02    0.775E-02
DAV:   6    -0.125629571553E+04   -0.22739E-04   -0.40016E-04 40956   0.363E-02
  12 F= -.12562957E+04 E0= -.12562957E+04  d E =-.152727E-01  mag=    39.9996
       N       E                     dE             d eps       ncg     rms          rms(c)
DAV:   1    -0.125629747121E+04   -0.17784E-02   -0.28395E-01 43416   0.741E-01    0.315E-01
DAV:   2    -0.125629684143E+04    0.62978E-03   -0.14094E-02 55452   0.220E-01    0.296E-01
DAV:   3    -0.125629675967E+04    0.81760E-04   -0.26534E-03 58260   0.850E-02    0.192E-01
DAV:   4    -0.125629658798E+04    0.17169E-03   -0.11161E-03 53928   0.535E-02    0.137E-01
DAV:   5    -0.125629652627E+04    0.61712E-04   -0.15879E-04 33300   0.358E-02
  13 F= -.12562965E+04 E0= -.12562965E+04  d E =-.810741E-03  mag=    39.9997
       N       E                     dE             d eps       ncg     rms          rms(c)
DAV:   1    -0.125628655956E+04    0.10028E-01   -0.64927E+00 43008   0.350E+00    0.641E-01
DAV:   2    -0.125630590817E+04   -0.19349E-01   -0.18142E-01 50196   0.617E-01    0.396E-01
DAV:   3    -0.125630650968E+04   -0.60152E-03   -0.86047E-03 62316   0.138E-01    0.208E-01
DAV:   4    -0.125630616523E+04    0.34446E-03   -0.10523E-03 57204   0.577E-02    0.144E-01
DAV:   5    -0.125630600275E+04    0.16248E-03   -0.94509E-04 51636   0.534E-02    0.577E-02
DAV:   6    -0.125630600749E+04   -0.47427E-05   -0.22873E-04 29964   0.307E-02
  14 F= -.12563060E+04 E0= -.12563060E+04  d E =-.948123E-02  mag=    39.9998
       N       E                     dE             d eps       ncg     rms          rms(c)
DAV:   1    -0.125630553223E+04    0.47052E-03   -0.26369E-01 43296   0.726E-01    0.283E-01
DAV:   2    -0.125630530940E+04    0.22283E-03   -0.11745E-02 60612   0.179E-01    0.212E-01
DAV:   3    -0.125630519605E+04    0.11336E-03   -0.15245E-03 60084   0.738E-02    0.925E-02
DAV:   4    -0.125630513183E+04    0.64219E-04   -0.17182E-04 28992   0.281E-02
  15 F= -.12563051E+04 E0= -.12563051E+04  d E =0.875666E-03  mag=    39.9998
       N       E                     dE             d eps       ncg     rms          rms(c)
DAV:   1    -0.125630578565E+04   -0.58960E-03   -0.63154E-01 43200   0.110E+00    0.186E-01
DAV:   2    -0.125630758568E+04   -0.18000E-02   -0.17710E-02 50616   0.193E-01    0.117E-01
DAV:   3    -0.125630761819E+04   -0.32510E-04   -0.76928E-04 52632   0.434E-02
  16 F= -.12563076E+04 E0= -.12563076E+04  d E =-.248636E-02  mag=    39.9998
       N       E                     dE             d eps       ncg     rms          rms(c)
DAV:   1    -0.125630816320E+04   -0.57752E-03   -0.62924E-01 43104   0.110E+00    0.196E-01
DAV:   2    -0.125630972339E+04   -0.15602E-02   -0.16976E-02 51504   0.198E-01    0.139E-01
DAV:   3    -0.125630973193E+04   -0.85430E-05   -0.98929E-04 57120   0.488E-02
  17 F= -.12563097E+04 E0= -.12563097E+04  d E =-.211375E-02  mag=    39.9998
       N       E                     dE             d eps       ncg     rms          rms(c)
DAV:   1    -0.125630824676E+04    0.14766E-02   -0.18354E+00 43032   0.187E+00    0.310E-01
DAV:   2    -0.125631321949E+04   -0.49727E-02   -0.48442E-02 48804   0.316E-01    0.193E-01
DAV:   3    -0.125631327619E+04   -0.56703E-04   -0.20709E-03 60912   0.639E-02    0.116E-01
DAV:   4    -0.125631313905E+04    0.13714E-03   -0.32259E-04 38940   0.350E-02    0.780E-02
DAV:   5    -0.125631312354E+04    0.15512E-04   -0.39381E-04 37776   0.331E-02
  18 F= -.12563131E+04 E0= -.12563131E+04  d E =-.339160E-02  mag=    39.9999
       N       E                     dE             d eps       ncg     rms          rms(c)
DAV:   1    -0.125631100648E+04    0.21326E-02   -0.17174E+00 43056   0.181E+00    0.322E-01
DAV:   2    -0.125631582811E+04   -0.48216E-02   -0.47083E-02 50448   0.315E-01    0.201E-01
DAV:   3    -0.125631599963E+04   -0.17152E-03   -0.21979E-03 60312   0.747E-02    0.130E-01
DAV:   4    -0.125631591927E+04    0.80357E-04   -0.15803E-04 29364   0.254E-02
  19 F= -.12563159E+04 E0= -.12563159E+04  d E =-.279573E-02  mag=    39.9999
       N       E                     dE             d eps       ncg     rms          rms(c)
DAV:   1    -0.125631370468E+04    0.22949E-02   -0.33511E-01 43092   0.802E-01    0.152E-01
DAV:   2    -0.125631479189E+04   -0.10872E-02   -0.10189E-02 50220   0.146E-01    0.869E-02
DAV:   3    -0.125631481714E+04   -0.25247E-04   -0.33530E-04 39612   0.354E-02
  20 F= -.12563148E+04 E0= -.12563148E+04  d E =0.110213E-02  mag=    39.9999
       N       E                     dE             d eps       ncg     rms          rms(c)
DAV:   1    -0.125631408655E+04    0.70533E-03   -0.93180E-01 43032   0.134E+00    0.204E-01
DAV:   2    -0.125631663479E+04   -0.25482E-02   -0.25347E-02 48840   0.231E-01    0.131E-01
DAV:   3    -0.125631668809E+04   -0.53296E-04   -0.98738E-04 55656   0.501E-02
  21 F= -.12563167E+04 E0= -.12563167E+04  d E =-.187095E-02  mag=    39.9999
       N       E                     dE             d eps       ncg     rms          rms(c)
DAV:   1    -0.125631696009E+04   -0.32530E-03   -0.52408E-02 43440   0.318E-01    0.705E-02
DAV:   2    -0.125631704833E+04   -0.88232E-04   -0.17096E-03 57828   0.746E-02    0.842E-02
DAV:   3    -0.125631703323E+04    0.15098E-04   -0.12839E-04 26292   0.229E-02
  22 F= -.12563170E+04 E0= -.12563170E+04  d E =-.345140E-03  mag=    39.9999
       N       E                     dE             d eps       ncg     rms          rms(c)
DAV:   1    -0.125631734737E+04   -0.29904E-03   -0.79979E-02 43368   0.392E-01    0.683E-02
DAV:   2    -0.125631754198E+04   -0.19462E-03   -0.21358E-03 52812   0.672E-02    0.478E-02
DAV:   3    -0.125631752944E+04    0.12548E-04   -0.72981E-05 24312   0.177E-02
  23 F= -.12563175E+04 E0= -.12563175E+04  d E =-.496207E-03  mag=    39.9999
       N       E                     dE             d eps       ncg     rms          rms(c)
DAV:   1    -0.125631779825E+04   -0.25627E-03   -0.27061E-01 43080   0.720E-01    0.109E-01
DAV:   2    -0.125631842380E+04   -0.62555E-03   -0.70126E-03 50376   0.121E-01    0.775E-02
DAV:   3    -0.125631841968E+04    0.41263E-05   -0.28970E-04 35556   0.302E-02
  24 F= -.12563184E+04 E0= -.12563184E+04  d E =-.890242E-03  mag=    39.9999
       N       E                     dE             d eps       ncg     rms          rms(c)
DAV:   1    -0.125631867350E+04   -0.24970E-03   -0.19716E-01 43128   0.614E-01    0.917E-02
DAV:   2    -0.125631913829E+04   -0.46479E-03   -0.49981E-03 51996   0.103E-01    0.759E-02
DAV:   3    -0.125631912803E+04    0.10259E-04   -0.18292E-04 30228   0.245E-02
  25 F= -.12563191E+04 E0= -.12563191E+04  d E =-.708352E-03  mag=    39.9999
       N       E                     dE             d eps       ncg     rms          rms(c)
DAV:   1    -0.125631929219E+04   -0.15390E-03   -0.12718E-02 44016   0.161E-01    0.691E-02
DAV:   2    -0.125631928092E+04    0.11277E-04   -0.66915E-04 47880   0.463E-02
  26 F= -.12563193E+04 E0= -.12563193E+04  d E =-.152887E-03  mag=    39.9999
       N       E                     dE             d eps       ncg     rms          rms(c)
DAV:   1    -0.125631951612E+04   -0.22392E-03   -0.97297E-02 43128   0.433E-01    0.783E-02
DAV:   2    -0.125631975830E+04   -0.24218E-03   -0.27852E-03 55356   0.838E-02    0.675E-02
DAV:   3    -0.125631974781E+04    0.10492E-04   -0.13684E-04 26856   0.242E-02
  27 F= -.12563197E+04 E0= -.12563197E+04  d E =-.466889E-03  mag=    39.9999
       N       E                     dE             d eps       ncg     rms          rms(c)
DAV:   1    -0.125631986977E+04   -0.11147E-03   -0.80352E-03 42936   0.125E-01    0.303E-02
DAV:   2    -0.125631988331E+04   -0.13536E-04   -0.19322E-04 26328   0.232E-02
  28 F= -.12563199E+04 E0= -.12563199E+04  d E =-.135500E-03  mag=    39.9999
       N       E                     dE             d eps       ncg     rms          rms(c)
DAV:   1    -0.125632016069E+04   -0.29092E-03   -0.15121E-01 43104   0.541E-01    0.103E-01
DAV:   2    -0.125632048238E+04   -0.32170E-03   -0.41872E-03 51564   0.944E-02    0.673E-02
DAV:   3    -0.125632046966E+04    0.12730E-04   -0.15453E-04 30120   0.267E-02
  29 F= -.12563205E+04 E0= -.12563205E+04  d E =-.586349E-03  mag=    39.9999
       N       E                     dE             d eps       ncg     rms          rms(c)
DAV:   1    -0.125632065993E+04   -0.17754E-03   -0.35457E-02 43404   0.260E-01    0.441E-02
DAV:   2    -0.125632073652E+04   -0.76590E-04   -0.89905E-04 45852   0.439E-02
  30 F= -.12563207E+04 E0= -.12563207E+04  d E =-.266861E-03  mag=    40.0000
       N       E                     dE             d eps       ncg     rms          rms(c)
DAV:   1    -0.125632104510E+04   -0.38517E-03   -0.67377E-02 43176   0.368E-01    0.118E-01
DAV:   2    -0.125632109186E+04   -0.46766E-04   -0.27994E-03 59484   0.894E-02    0.111E-01
DAV:   3    -0.125632104326E+04    0.48598E-04   -0.22007E-04 32724   0.326E-02
  31 F= -.12563210E+04 E0= -.12563210E+04  d E =-.306748E-03  mag=    40.0000
       N       E                     dE             d eps       ncg     rms          rms(c)
DAV:   1    -0.125632123201E+04   -0.14014E-03   -0.21228E-02 43416   0.204E-01    0.499E-02
DAV:   2    -0.125632126804E+04   -0.36039E-04   -0.73210E-04 49464   0.465E-02
  32 F= -.12563213E+04 E0= -.12563213E+04  d E =-.224780E-03  mag=    40.0000
       N       E                     dE             d eps       ncg     rms          rms(c)
DAV:   1    -0.125632143713E+04   -0.20513E-03   -0.85909E-02 43128   0.408E-01    0.712E-02
DAV:   2    -0.125632164821E+04   -0.21108E-03   -0.24917E-03 52668   0.758E-02    0.522E-02
DAV:   3    -0.125632164027E+04    0.79420E-05   -0.90187E-05 23904   0.181E-02
  33 F= -.12563216E+04 E0= -.12563216E+04  d E =-.372227E-03  mag=    40.0000
       N       E                     dE             d eps       ncg     rms          rms(c)
DAV:   1    -0.125632159891E+04    0.49301E-04   -0.16737E-03 38856   0.582E-02    0.265E-02
DAV:   2    -0.125632160023E+04   -0.13170E-05   -0.80984E-05 22668   0.172E-02
  34 F= -.12563216E+04 E0= -.12563216E+04  d E =0.400425E-04  mag=    40.0000
       N       E                     dE             d eps       ncg     rms          rms(c)
DAV:   1    -0.125632172911E+04   -0.13020E-03   -0.12385E-01 43104   0.489E-01    0.720E-02
DAV:   2    -0.125632202159E+04   -0.29248E-03   -0.33788E-03 51756   0.886E-02    0.682E-02
DAV:   3    -0.125632201490E+04    0.66989E-05   -0.13935E-04 26184   0.220E-02
  35 F= -.12563220E+04 E0= -.12563220E+04  d E =-.414666E-03  mag=    40.0000
       N       E                     dE             d eps       ncg     rms          rms(c)
DAV:   1    -0.125632214455E+04   -0.12296E-03   -0.14987E-02 43344   0.171E-01    0.510E-02
DAV:   2    -0.125632217670E+04   -0.32149E-04   -0.73890E-04 48468   0.458E-02
  36 F= -.12563222E+04 E0= -.12563222E+04  d E =-.161805E-03  mag=    40.0000
       N       E                     dE             d eps       ncg     rms          rms(c)
DAV:   1    -0.125632240423E+04   -0.25968E-03   -0.53200E-02 43104   0.322E-01    0.773E-02
DAV:   2    -0.125632249001E+04   -0.85785E-04   -0.17151E-03 56676   0.653E-02    0.575E-02
DAV:   3    -0.125632247196E+04    0.18053E-04   -0.10455E-04 26940   0.232E-02
  37 F= -.12563225E+04 E0= -.12563225E+04  d E =-.295260E-03  mag=    40.0000
       N       E                     dE             d eps       ncg     rms          rms(c)
DAV:   1    -0.125632259424E+04   -0.10422E-03   -0.15845E-02 43344   0.175E-01    0.349E-02
DAV:   2    -0.125632261690E+04   -0.22662E-04   -0.38259E-04 31536   0.327E-02
  38 F= -.12563226E+04 E0= -.12563226E+04  d E =-.144938E-03  mag=    40.0000
       N       E                     dE             d eps       ncg     rms          rms(c)
DAV:   1    -0.125632276975E+04   -0.17551E-03   -0.50549E-02 43104   0.313E-01    0.852E-02
DAV:   2    -0.125632286061E+04   -0.90869E-04   -0.15923E-03 55908   0.637E-02    0.717E-02
DAV:   3    -0.125632285380E+04    0.68169E-05   -0.93268E-05 26496   0.212E-02
  39 F= -.12563229E+04 E0= -.12563229E+04  d E =-.236899E-03  mag=    40.0000
       N       E                     dE             d eps       ncg     rms          rms(c)
DAV:   1    -0.125632282855E+04    0.32068E-04   -0.19880E-01 43056   0.620E-01    0.109E-01
DAV:   2    -0.125632336340E+04   -0.53486E-03   -0.52960E-03 50028   0.108E-01    0.863E-02
DAV:   3    -0.125632336125E+04    0.21544E-05   -0.19824E-04 30480   0.261E-02
  40 F= -.12563234E+04 E0= -.12563234E+04  d E =-.507453E-03  mag=    40.0000
       N       E                     dE             d eps       ncg     rms          rms(c)
DAV:   1    -0.125632335328E+04    0.10120E-04   -0.17680E-03 40932   0.614E-02    0.432E-02
DAV:   2    -0.125632334429E+04    0.89937E-05   -0.87182E-05 23796   0.173E-02
  41 F= -.12563233E+04 E0= -.12563233E+04  d E =0.169598E-04  mag=    40.0000
       N       E                     dE             d eps       ncg     rms          rms(c)
DAV:   1    -0.125632340347E+04   -0.50181E-04   -0.90873E-02 43104   0.421E-01    0.805E-02
DAV:   2    -0.125632366193E+04   -0.25847E-03   -0.24855E-03 52224   0.748E-02    0.573E-02
DAV:   3    -0.125632366445E+04   -0.25107E-05   -0.94140E-05 25788   0.198E-02
  42 F= -.12563237E+04 E0= -.12563237E+04  d E =-.320155E-03  mag=    40.0000
       N       E                     dE             d eps       ncg     rms          rms(c)
DAV:   1    -0.125632396448E+04   -0.30254E-03   -0.16474E-02 45108   0.195E-01    0.172E-01
DAV:   2    -0.125632369109E+04    0.27339E-03   -0.28328E-03 63120   0.967E-02    0.151E-01
DAV:   3    -0.125632360212E+04    0.88965E-04   -0.46162E-04 42132   0.416E-02
  43 F= -.12563236E+04 E0= -.12563236E+04  d E =0.623240E-04  mag=    40.0000
       N       E                     dE             d eps       ncg     rms          rms(c)
DAV:   1    -0.125632381134E+04   -0.12025E-03   -0.43072E-02 43152   0.292E-01    0.725E-02
DAV:   2    -0.125632387467E+04   -0.63327E-04   -0.15805E-03 57936   0.700E-02    0.714E-02
DAV:   3    -0.125632385800E+04    0.16662E-04   -0.14004E-04 28116   0.255E-02
  44 F= -.12563239E+04 E0= -.12563239E+04  d E =-.255882E-03  mag=    40.0000
       N       E                     dE             d eps       ncg     rms          rms(c)
DAV:   1    -0.125632397503E+04   -0.10037E-03   -0.52892E-02 43104   0.320E-01    0.527E-02
DAV:   2    -0.125632410303E+04   -0.12799E-03   -0.14500E-03 52776   0.569E-02    0.447E-02
DAV:   3    -0.125632409880E+04    0.42259E-05   -0.50291E-05 22920   0.151E-02
  45 F= -.12563241E+04 E0= -.12563241E+04  d E =-.240797E-03  mag=    40.0000
       N       E                     dE             d eps       ncg     rms          rms(c)
DAV:   1    -0.125632420639E+04   -0.10336E-03   -0.15506E-02 43224   0.173E-01    0.361E-02
DAV:   2    -0.125632422963E+04   -0.23249E-04   -0.40741E-04 32784   0.325E-02
  46 F= -.12563242E+04 E0= -.12563242E+04  d E =-.130835E-03  mag=    40.0000
       N       E                     dE             d eps       ncg     rms          rms(c)
DAV:   1    -0.125632431721E+04   -0.11082E-03   -0.72664E-02 43080   0.374E-01    0.639E-02
DAV:   2    -0.125632450367E+04   -0.18647E-03   -0.19230E-03 51168   0.636E-02    0.430E-02
DAV:   3    -0.125632450077E+04    0.29009E-05   -0.59102E-05 23556   0.142E-02
  47 F= -.12563245E+04 E0= -.12563245E+04  d E =-.271136E-03  mag=    40.0000
       N       E                     dE             d eps       ncg     rms          rms(c)
DAV:   1    -0.125632451702E+04   -0.13343E-04   -0.33438E-04 34032   0.258E-02    0.197E-02
DAV:   2    -0.125632451544E+04    0.15715E-05   -0.16947E-05 22656   0.807E-03
  48 F= -.12563245E+04 E0= -.12563245E+04  d E =-.146724E-04  mag=    40.0000
       N       E                     dE             d eps       ncg     rms          rms(c)
DAV:   1    -0.125632427945E+04    0.23757E-03   -0.30374E-02 43104   0.245E-01    0.498E-02
DAV:   2    -0.125632434479E+04   -0.65342E-04   -0.88095E-04 44328   0.452E-02
  49 F= -.12563243E+04 E0= -.12563243E+04  d E =0.170652E-03  mag=    40.0000
       N       E                     dE             d eps       ncg     rms          rms(c)
DAV:   1    -0.125632398059E+04    0.29886E-03   -0.38175E-01 43008   0.861E-01    0.168E-01
DAV:   2    -0.125632493133E+04   -0.95074E-03   -0.10655E-02 50760   0.157E-01    0.128E-01
DAV:   3    -0.125632492870E+04    0.26381E-05   -0.56719E-04 47136   0.452E-02
  50 F= -.12563249E+04 E0= -.12563249E+04  d E =-.583904E-03  mag=    40.0000
       N       E                     dE             d eps       ncg     rms          rms(c)
DAV:   1    -0.125632500369E+04   -0.72357E-04   -0.71380E-02 43080   0.372E-01    0.925E-02
DAV:   2    -0.125632516119E+04   -0.15750E-03   -0.19104E-03 50244   0.670E-02    0.591E-02
DAV:   3    -0.125632515099E+04    0.10209E-04   -0.71689E-05 24900   0.160E-02
  51 F= -.12563252E+04 E0= -.12563252E+04  d E =-.222291E-03  mag=    40.0000
       N       E                     dE             d eps       ncg     rms          rms(c)
DAV:   1    -0.125632302509E+04    0.21361E-02   -0.60320E-01 43008   0.108E+00    0.290E-01
DAV:   2    -0.125632444447E+04   -0.14194E-02   -0.17978E-02 51696   0.207E-01    0.189E-01
DAV:   3    -0.125632446875E+04   -0.24283E-04   -0.12200E-03 54420   0.681E-02    0.784E-02
DAV:   4    -0.125632442068E+04    0.48069E-04   -0.12292E-04 25224   0.256E-02
  52 F= -.12563244E+04 E0= -.12563244E+04  d E =0.730302E-03  mag=    40.0000
       N       E                     dE             d eps       ncg     rms          rms(c)
DAV:   1    -0.125632440943E+04    0.59323E-04   -0.17488E-01 43032   0.583E-01    0.112E-01
DAV:   2    -0.125632485546E+04   -0.44603E-03   -0.49612E-03 50844   0.106E-01    0.693E-02
DAV:   3    -0.125632486497E+04   -0.95056E-05   -0.23362E-04 31152   0.300E-02
  53 F= -.12563249E+04 E0= -.12563249E+04  d E =-.444285E-03  mag=    40.0000
       N       E                     dE             d eps       ncg     rms          rms(c)
DAV:   1    -0.125632495716E+04   -0.10170E-03   -0.86173E-03 43260   0.131E-01    0.397E-02
DAV:   2    -0.125632495052E+04    0.66396E-05   -0.22903E-04 26268   0.281E-02
  54 F= -.12563250E+04 E0= -.12563250E+04  d E =-.855520E-04  mag=    40.0000
       N       E                     dE             d eps       ncg     rms          rms(c)
DAV:   1    -0.125632452571E+04    0.43145E-03   -0.64669E-02 43056   0.357E-01    0.712E-02
DAV:   2    -0.125632469536E+04   -0.16964E-03   -0.18586E-03 50760   0.666E-02    0.429E-02
DAV:   3    -0.125632469479E+04    0.56739E-06   -0.59756E-05 23340   0.172E-02
  55 F= -.12563247E+04 E0= -.12563247E+04  d E =0.255732E-03  mag=    40.0000
       N       E                     dE             d eps       ncg     rms          rms(c)
DAV:   1    -0.125632476632E+04   -0.70961E-04   -0.59100E-02 43056   0.340E-01    0.637E-02
DAV:   2    -0.125632491787E+04   -0.15155E-03   -0.17903E-03 52488   0.677E-02    0.623E-02
DAV:   3    -0.125632491269E+04    0.51778E-05   -0.85773E-05 24396   0.201E-02
  56 F= -.12563249E+04 E0= -.12563249E+04  d E =-.217902E-03  mag=    40.0000
       N       E                     dE             d eps       ncg     rms          rms(c)
DAV:   1    -0.125632503543E+04   -0.11756E-03   -0.28418E-02 43104   0.237E-01    0.547E-02
DAV:   2    -0.125632508256E+04   -0.47134E-04   -0.85516E-04 44484   0.448E-02
  57 F= -.12563251E+04 E0= -.12563251E+04  d E =-.169869E-03  mag=    40.0000
       N       E                     dE             d eps       ncg     rms          rms(c)
DAV:   1    -0.125632518302E+04   -0.14759E-03   -0.29144E-02 43116   0.238E-01    0.726E-02
DAV:   2    -0.125632522840E+04   -0.45379E-04   -0.93642E-04 49512   0.485E-02
  58 F= -.12563252E+04 E0= -.12563252E+04  d E =-.145836E-03  mag=    40.0000
       N       E                     dE             d eps       ncg     rms          rms(c)
DAV:   1    -0.125632522848E+04   -0.45464E-04   -0.16594E-04 25992   0.247E-02    0.347E-02
DAV:   2    -0.125632522631E+04    0.21699E-05   -0.40840E-05 22620   0.135E-02
  59 F= -.12563252E+04 E0= -.12563252E+04  d E =0.208495E-05  mag=    40.0000
       N       E                     dE             d eps       ncg     rms          rms(c)
DAV:   1    -0.125632524389E+04   -0.15410E-04   -0.11089E-03 38688   0.474E-02    0.241E-02
DAV:   2    -0.125632524451E+04   -0.61840E-06   -0.41883E-05 22848   0.129E-02
  60 F= -.12563252E+04 E0= -.12563252E+04  d E =-.181984E-04  mag=    40.0000
       N       E                     dE             d eps       ncg     rms          rms(c)
DAV:   1    -0.125632528297E+04   -0.39078E-04   -0.10550E-02 43200   0.141E-01    0.100E-01
DAV:   2    -0.125632525250E+04    0.30473E-04   -0.67185E-04 48084   0.481E-02
  61 F= -.12563253E+04 E0= -.12563253E+04  d E =-.798659E-05  mag=    40.0000
       N       E                     dE             d eps       ncg     rms          rms(c)
DAV:   1    -0.125632527354E+04    0.94266E-05   -0.15225E-02 43428   0.167E-01    0.143E-01
DAV:   2    -0.125632517672E+04    0.96822E-04   -0.10019E-03 48936   0.564E-02    0.967E-02
DAV:   3    -0.125632515957E+04    0.17154E-04   -0.16444E-04 31008   0.303E-02
  62 F= -.12563252E+04 E0= -.12563252E+04  d E =0.929290E-04  mag=    40.0000
       N       E                     dE             d eps       ncg     rms          rms(c)
DAV:   1    -0.125632630285E+04   -0.11261E-02   -0.18540E-01 43032   0.591E-01    0.473E-01
DAV:   2    -0.125632533728E+04    0.96556E-03   -0.13721E-02 61392   0.201E-01    0.300E-01
DAV:   3    -0.125632517626E+04    0.16103E-03   -0.26913E-03 60000   0.104E-01    0.120E-01
DAV:   4    -0.125632510540E+04    0.70861E-04   -0.38490E-04 38808   0.344E-02
  63 F= -.12563251E+04 E0= -.12563251E+04  d E =0.541674E-04  mag=    40.0000
       N       E                     dE             d eps       ncg     rms          rms(c)
DAV:   1    -0.125632559651E+04   -0.42025E-03   -0.10210E-01 43032   0.450E-01    0.236E-01
DAV:   2    -0.125632551764E+04    0.78868E-04   -0.43125E-03 58980   0.109E-01    0.133E-01
DAV:   3    -0.125632551592E+04    0.17137E-05   -0.59292E-04 46284   0.530E-02
  64 F= -.12563255E+04 E0= -.12563255E+04  d E =-.410525E-03  mag=    40.0000
       N       E                     dE             d eps       ncg     rms          rms(c)
DAV:   1    -0.125632586228E+04   -0.34464E-03   -0.67741E-02 43044   0.374E-01    0.169E-01
DAV:   2    -0.125632569822E+04    0.16406E-03   -0.37894E-03 60840   0.108E-01    0.154E-01
DAV:   3    -0.125632560388E+04    0.94333E-04   -0.53478E-04 44004   0.447E-02
  65 F= -.12563256E+04 E0= -.12563256E+04  d E =-.879604E-04  mag=    40.0000
       N       E                     dE             d eps       ncg     rms          rms(c)
DAV:   1    -0.125632570987E+04   -0.11653E-04   -0.35664E-03 43440   0.901E-02    0.681E-02
DAV:   2    -0.125632568076E+04    0.29111E-04   -0.64502E-04 47100   0.478E-02
  66 F= -.12563257E+04 E0= -.12563257E+04  d E =-.768759E-04  mag=    40.0000
       N       E                     dE             d eps       ncg     rms          rms(c)
DAV:   1    -0.125632572623E+04   -0.16354E-04   -0.25293E-03 46824   0.767E-02    0.486E-02
DAV:   2    -0.125632570430E+04    0.21925E-04   -0.13279E-04 22740   0.229E-02
  67 F= -.12563257E+04 E0= -.12563257E+04  d E =-.235395E-04  mag=    40.0000
       N       E                     dE             d eps       ncg     rms          rms(c)
DAV:   1    -0.125632569743E+04    0.28794E-04   -0.24333E-02 43044   0.220E-01    0.708E-02
DAV:   2    -0.125632573346E+04   -0.36033E-04   -0.83833E-04 51036   0.440E-02
  68 F= -.12563257E+04 E0= -.12563257E+04  d E =-.291651E-04  mag=    40.0000
       N       E                     dE             d eps       ncg     rms          rms(c)
DAV:   1    -0.125632610852E+04   -0.41109E-03   -0.32794E-02 43548   0.266E-01    0.161E-01
DAV:   2    -0.125632585468E+04    0.25384E-03   -0.22712E-03 62724   0.801E-02    0.103E-01
DAV:   3    -0.125632581915E+04    0.35531E-04   -0.35144E-04 41532   0.395E-02
  69 F= -.12563258E+04 E0= -.12563258E+04  d E =-.856834E-04  mag=    40.0000
       N       E                     dE             d eps       ncg     rms          rms(c)
DAV:   1    -0.125632535580E+04    0.49888E-03   -0.29583E-01 43008   0.766E-01    0.152E-01
DAV:   2    -0.125632599626E+04   -0.64046E-03   -0.86193E-03 54108   0.147E-01    0.127E-01
DAV:   3    -0.125632596350E+04    0.32762E-04   -0.41025E-04 39876   0.383E-02
  70 F= -.12563260E+04 E0= -.12563260E+04  d E =-.144351E-03  mag=    40.0000
       N       E                     dE             d eps       ncg     rms          rms(c)
DAV:   1    -0.125632725241E+04   -0.12561E-02   -0.11692E-01 44304   0.511E-01    0.290E-01
DAV:   2    -0.125632628606E+04    0.96635E-03   -0.74533E-03 60912   0.145E-01    0.176E-01
DAV:   3    -0.125632615034E+04    0.13572E-03   -0.14109E-03 59892   0.839E-02    0.109E-01
DAV:   4    -0.125632612116E+04    0.29179E-04   -0.34101E-04 36000   0.311E-02
  71 F= -.12563261E+04 E0= -.12563261E+04  d E =-.157661E-03  mag=    40.0000
       N       E                     dE             d eps       ncg     rms          rms(c)
DAV:   1    -0.125632629080E+04   -0.14046E-03   -0.11351E-02 43368   0.154E-01    0.954E-02
DAV:   2    -0.125632622921E+04    0.61597E-04   -0.75336E-04 49212   0.500E-02
  72 F= -.12563262E+04 E0= -.12563262E+04  d E =-.108046E-03  mag=    40.0000
       N       E                     dE             d eps       ncg     rms          rms(c)
DAV:   1    -0.125632691142E+04   -0.62062E-03   -0.61345E-02 43884   0.364E-01    0.235E-01
DAV:   2    -0.125632635399E+04    0.55743E-03   -0.52366E-03 63084   0.133E-01    0.195E-01
DAV:   3    -0.125632623174E+04    0.12225E-03   -0.89505E-04 54264   0.570E-02    0.799E-02
DAV:   4    -0.125632619288E+04    0.38862E-04   -0.82097E-05 26904   0.207E-02
  73 F= -.12563262E+04 E0= -.12563262E+04  d E =0.363230E-04  mag=    40.0000
       N       E                     dE             d eps       ncg     rms          rms(c)
DAV:   1    -0.125632693372E+04   -0.70198E-03   -0.25039E-02 44616   0.241E-01    0.186E-01
DAV:   2    -0.125632652393E+04    0.40980E-03   -0.35592E-03 63108   0.109E-01    0.154E-01
DAV:   3    -0.125632642125E+04    0.10267E-03   -0.59391E-04 44832   0.475E-02    0.552E-02
DAV:   4    -0.125632641680E+04    0.44578E-05   -0.64687E-05 24924   0.176E-02
  74 F= -.12563264E+04 E0= -.12563264E+04  d E =-.223913E-03  mag=    40.0000
       N       E                     dE             d eps       ncg     rms          rms(c)
DAV:   1    -0.125632645178E+04   -0.30528E-04   -0.39498E-02 43032   0.279E-01    0.679E-02
DAV:   2    -0.125632652063E+04   -0.68849E-04   -0.11749E-03 51216   0.556E-02    0.472E-02
DAV:   3    -0.125632652060E+04    0.35783E-07   -0.85760E-05 25152   0.162E-02
  75 F= -.12563265E+04 E0= -.12563265E+04  d E =-.103799E-03  mag=    40.0000
       N       E                     dE             d eps       ncg     rms          rms(c)
DAV:   1    -0.125632658618E+04   -0.65544E-04   -0.56010E-03 43080   0.104E-01    0.266E-02
DAV:   2    -0.125632659887E+04   -0.12694E-04   -0.20181E-04 25044   0.264E-02
  76 F= -.12563266E+04 E0= -.12563266E+04  d E =-.782743E-04  mag=    40.0000
       N       E                     dE             d eps       ncg     rms          rms(c)
DAV:   1    -0.125632671354E+04   -0.12736E-03   -0.13452E-02 43188   0.166E-01    0.665E-02
DAV:   2    -0.125632669394E+04    0.19596E-04   -0.56007E-04 42780   0.403E-02
  77 F= -.12563267E+04 E0= -.12563267E+04  d E =-.950701E-04  mag=    40.0000
       N       E                     dE             d eps       ncg     rms          rms(c)
DAV:   1    -0.125632672851E+04   -0.14979E-04   -0.72831E-03 43392   0.120E-01    0.478E-02
DAV:   2    -0.125632673218E+04   -0.36706E-05   -0.19660E-04 30372   0.261E-02
  78 F= -.12563267E+04 E0= -.12563267E+04  d E =-.382448E-04  mag=    40.0000
       N       E                     dE             d eps       ncg     rms          rms(c)
DAV:   1    -0.125632676458E+04   -0.36063E-04   -0.22489E-03 40800   0.663E-02    0.251E-02
DAV:   2    -0.125632676787E+04   -0.32909E-05   -0.76180E-05 22680   0.167E-02
  79 F= -.12563268E+04 E0= -.12563268E+04  d E =-.356837E-04  mag=    40.0000
       N       E                     dE             d eps       ncg     rms          rms(c)
DAV:   1    -0.125632679828E+04   -0.33698E-04   -0.11893E-03 45048   0.538E-02    0.519E-02
DAV:   2    -0.125632675440E+04    0.43874E-04   -0.18083E-04 24060   0.276E-02
  80 F= -.12563268E+04 E0= -.12563268E+04  d E =0.134663E-04  mag=    40.0000
       N       E                     dE             d eps       ncg     rms          rms(c)
DAV:   1    -0.125632684182E+04   -0.43543E-04   -0.26524E-02 43008   0.229E-01    0.528E-02
DAV:   2    -0.125632688465E+04   -0.42833E-04   -0.86186E-04 46152   0.483E-02
  81 F= -.12563269E+04 E0= -.12563269E+04  d E =-.130250E-03  mag=    40.0000
       N       E                     dE             d eps       ncg     rms          rms(c)
DAV:   1    -0.125632690116E+04   -0.59345E-04   -0.99298E-04 38940   0.460E-02    0.241E-02
DAV:   2    -0.125632690049E+04    0.67599E-06   -0.50434E-05 22596   0.156E-02
  82 F= -.12563269E+04 E0= -.12563269E+04  d E =-.158361E-04  mag=    40.0000
       N       E                     dE             d eps       ncg     rms          rms(c)
DAV:   1    -0.125632702761E+04   -0.12644E-03   -0.46528E-02 43404   0.309E-01    0.106E-01
DAV:   2    -0.125632702698E+04    0.62499E-06   -0.19707E-03 59568   0.723E-02    0.914E-02
DAV:   3    -0.125632699283E+04    0.34153E-04   -0.15293E-04 30120   0.285E-02
  83 F= -.12563270E+04 E0= -.12563270E+04  d E =-.923391E-04  mag=    40.0000
       N       E                     dE             d eps       ncg     rms          rms(c)
DAV:   1    -0.125632702792E+04   -0.94292E-06   -0.27182E-03 42744   0.728E-02    0.361E-02
DAV:   2    -0.125632702712E+04    0.80785E-06   -0.15305E-04 31788   0.265E-02
  84 F= -.12563270E+04 E0= -.12563270E+04  d E =-.342884E-04  mag=    40.0000
       N       E                     dE             d eps       ncg     rms          rms(c)
DAV:   1    -0.125632706542E+04   -0.37498E-04   -0.13033E-03 39984   0.517E-02    0.295E-02
DAV:   2    -0.125632705291E+04    0.12513E-04   -0.74026E-05 23460   0.182E-02
  85 F= -.12563271E+04 E0= -.12563271E+04  d E =-.257932E-04  mag=    40.0000
       N       E                     dE             d eps       ncg     rms          rms(c)
DAV:   1    -0.125632732496E+04   -0.25954E-03   -0.26576E-02 43440   0.241E-01    0.130E-01
DAV:   2    -0.125632716990E+04    0.15505E-03   -0.20215E-03 62376   0.811E-02    0.120E-01
DAV:   3    -0.125632711137E+04    0.58530E-04   -0.24940E-04 34956   0.325E-02
  86 F= -.12563271E+04 E0= -.12563271E+04  d E =-.584656E-04  mag=    40.0000
       N       E                     dE             d eps       ncg     rms          rms(c)
DAV:   1    -0.125632719957E+04   -0.29662E-04   -0.96463E-03 43668   0.142E-01    0.582E-02
DAV:   2    -0.125632720120E+04   -0.16291E-05   -0.66627E-04 50124   0.499E-02
  87 F= -.12563272E+04 E0= -.12563272E+04  d E =-.898216E-04  mag=    40.0000
       N       E                     dE             d eps       ncg     rms          rms(c)
DAV:   1    -0.125632728185E+04   -0.82282E-04   -0.31187E-02 43560   0.254E-01    0.107E-01
DAV:   2    -0.125632721210E+04    0.69746E-04   -0.13687E-03 52848   0.617E-02    0.703E-02
DAV:   3    -0.125632719638E+04    0.15717E-04   -0.13180E-04 29364   0.264E-02
  88 F= -.12563272E+04 E0= -.12563272E+04  d E =0.481079E-05  mag=    40.0000
       N       E                     dE             d eps       ncg     rms          rms(c)
DAV:   1    -0.125632728323E+04   -0.71127E-04   -0.12679E-02 43056   0.157E-01    0.394E-02
DAV:   2    -0.125632731182E+04   -0.28592E-04   -0.41953E-04 35220   0.344E-02
  89 F= -.12563273E+04 E0= -.12563273E+04  d E =-.115437E-03  mag=    40.0000
