       N       E                     dE             d eps       ncg     rms          rms(c)
DAV:   1     0.111125839251E+05    0.11113E+05   -0.39390E+05 43008   0.125E+03
DAV:   2     0.105086235066E+04   -0.10062E+05   -0.92673E+04 44376   0.350E+02
DAV:   3    -0.142396372376E+04   -0.24748E+04   -0.23967E+04 48468   0.181E+02
DAV:   4    -0.164711575302E+04   -0.22315E+03   -0.21972E+03 64752   0.610E+01
DAV:   5    -0.165564890110E+04   -0.85331E+01   -0.84156E+01 67764   0.137E+01
DAV:   6    -0.165603602476E+04   -0.38712E+00   -0.38370E+00 68004   0.251E+00
DAV:   7    -0.165605861713E+04   -0.22592E-01   -0.22496E-01 68364   0.616E-01
DAV:   8    -0.165606020506E+04   -0.15879E-02   -0.15844E-02 63516   0.140E-01
DAV:   9    -0.165606032865E+04   -0.12358E-03   -0.12341E-03 44172   0.408E-02
DAV:  10    -0.165606033951E+04   -0.10869E-04   -0.10840E-04 36168   0.155E-02
DAV:  11    -0.165606034187E+04   -0.23547E-05   -0.23417E-05 33948   0.992E-03
DAV:  12    -0.165606034311E+04   -0.12431E-05   -0.12357E-05 32664   0.711E-03    0.166E+02
DAV:  13    -0.122541134590E+04    0.43065E+03   -0.25734E+03 63648   0.826E+01    0.105E+02
DAV:  14    -0.126095920373E+04   -0.35548E+02   -0.71958E+02 69288   0.472E+01    0.720E+01
DAV:  15    -0.125717938789E+04    0.37798E+01   -0.10064E+02 61056   0.163E+01    0.420E+01
DAV:  16    -0.125928337555E+04   -0.21040E+01   -0.75053E+01 68280   0.217E+01    0.339E+01
DAV:  17    -0.125620956771E+04    0.30738E+01   -0.36383E+01 64584   0.108E+01    0.119E+01
DAV:  18    -0.125552521153E+04    0.68436E+00   -0.12368E+01 66060   0.656E+00    0.715E+00
DAV:  19    -0.125524452764E+04    0.28068E+00   -0.35950E+00 62424   0.331E+00    0.388E+00
DAV:  20    -0.125527166773E+04   -0.27140E-01   -0.54163E-01 58956   0.123E+00    0.172E+00
DAV:  21    -0.125527421259E+04   -0.25449E-02   -0.21921E-01 62052   0.726E-01    0.118E+00
DAV:  22    -0.125527805021E+04   -0.38376E-02   -0.46745E-02 60708   0.383E-01    0.649E-01
DAV:  23    -0.125527953628E+04   -0.14861E-02   -0.12508E-02 62328   0.263E-01    0.303E-01
DAV:  24    -0.125528007689E+04   -0.54061E-03   -0.88767E-03 62172   0.157E-01    0.211E-01
DAV:  25    -0.125528019268E+04   -0.11579E-03   -0.13777E-03 58932   0.621E-02    0.103E-01
DAV:  26    -0.125528021767E+04   -0.24992E-04   -0.43328E-04 41208   0.399E-02
   1 F= -.12552802E+04 E0= -.12552802E+04  d E =-.125528E+04  mag=    39.9463
       N       E                     dE             d eps       ncg     rms          rms(c)
DAV:   1    -0.125536799173E+04   -0.87799E-01   -0.47801E+00 43932   0.324E+00    0.196E+00
DAV:   2    -0.125532978658E+04    0.38205E-01   -0.24947E-01 61728   0.957E-01    0.157E+00
DAV:   3    -0.125531642025E+04    0.13366E-01   -0.76810E-02 60384   0.509E-01    0.802E-01
DAV:   4    -0.125531086125E+04    0.55590E-02   -0.24781E-02 62184   0.250E-01    0.401E-01
DAV:   5    -0.125530990282E+04    0.95842E-03   -0.61107E-03 62676   0.143E-01    0.127E-01
DAV:   6    -0.125530994409E+04   -0.41270E-04   -0.24382E-03 61824   0.798E-02    0.108E-01
DAV:   7    -0.125530993131E+04    0.12787E-04   -0.19857E-04 29880   0.397E-02
   2 F= -.12553099E+04 E0= -.12553099E+04  d E =-.297136E-01  mag=    39.9579
       N       E                     dE             d eps       ncg     rms          rms(c)
DAV:   1    -0.125532038204E+04   -0.10438E-01   -0.66537E+00 43272   0.357E+00    0.199E+00
DAV:   2    -0.125531737625E+04    0.30058E-02   -0.50672E-01 58512   0.150E+00    0.224E+00
DAV:   3    -0.125530816689E+04    0.92094E-02   -0.94903E-02 57972   0.529E-01    0.136E+00
DAV:   4    -0.125530478054E+04    0.33864E-02   -0.40956E-02 63624   0.337E-01    0.887E-01
DAV:   5    -0.125530220348E+04    0.25771E-02   -0.96620E-03 61884   0.293E-01    0.521E-01
DAV:   6    -0.125530246198E+04   -0.25849E-03   -0.75745E-03 61308   0.137E-01    0.196E-01
DAV:   7    -0.125530245234E+04    0.96398E-05   -0.89499E-04 58104   0.507E-02
   3 F= -.12553025E+04 E0= -.12553025E+04  d E =0.747897E-02  mag=    39.9676
       N       E                     dE             d eps       ncg     rms          rms(c)
DAV:   1    -0.125532443891E+04   -0.21977E-01   -0.36862E-01 43752   0.868E-01    0.529E-01
DAV:   2    -0.125532269927E+04    0.17396E-02   -0.32844E-02 59220   0.385E-01    0.633E-01
DAV:   3    -0.125532181475E+04    0.88451E-03   -0.63702E-03 57732   0.128E-01    0.418E-01
DAV:   4    -0.125532137502E+04    0.43973E-03   -0.47408E-03 62436   0.106E-01    0.292E-01
DAV:   5    -0.125532110852E+04    0.26650E-03   -0.77446E-04 52908   0.726E-02    0.138E-01
DAV:   6    -0.125532107514E+04    0.33386E-04   -0.91768E-04 54444   0.424E-02
   4 F= -.12553211E+04 E0= -.12553211E+04  d E =-.186228E-01  mag=    39.9739
       N       E                     dE             d eps       ncg     rms          rms(c)
DAV:   1    -0.125535343384E+04   -0.32325E-01   -0.31635E+00 43512   0.261E+00    0.150E+00
DAV:   2    -0.125532461889E+04    0.28815E-01   -0.19765E-01 62580   0.751E-01    0.954E-01
DAV:   3    -0.125532016347E+04    0.44554E-02   -0.42515E-02 59364   0.431E-01    0.549E-01
DAV:   4    -0.125531837239E+04    0.17911E-02   -0.75983E-03 64788   0.162E-01    0.295E-01
DAV:   5    -0.125531813427E+04    0.23812E-03   -0.23185E-03 60456   0.753E-02    0.144E-01
DAV:   6    -0.125531800074E+04    0.13353E-03   -0.72468E-04 51336   0.482E-02    0.765E-02
DAV:   7    -0.125531799602E+04    0.47187E-05   -0.19372E-04 30096   0.256E-02
   5 F= -.12553180E+04 E0= -.12553180E+04  d E =0.307911E-02  mag=    39.9801
       N       E                     dE             d eps       ncg     rms          rms(c)
DAV:   1    -0.125534364564E+04   -0.25645E-01   -0.13902E+00 43164   0.163E+00    0.861E-01
DAV:   2    -0.125533964037E+04    0.40053E-02   -0.85870E-02 58524   0.506E-01    0.778E-01
DAV:   3    -0.125533814369E+04    0.14967E-02   -0.16725E-02 62064   0.214E-01    0.486E-01
DAV:   4    -0.125533731867E+04    0.82502E-03   -0.86126E-03 64344   0.160E-01    0.371E-01
DAV:   5    -0.125533709285E+04    0.22582E-03   -0.22980E-03 54792   0.825E-02    0.161E-01
DAV:   6    -0.125533700527E+04    0.87581E-04   -0.19863E-03 61092   0.703E-02    0.540E-02
DAV:   7    -0.125533701737E+04   -0.12104E-04   -0.34184E-04 39144   0.320E-02
   6 F= -.12553370E+04 E0= -.12553370E+04  d E =-.190214E-01  mag=    39.9850
       N       E                     dE             d eps       ncg     rms          rms(c)
DAV:   1    -0.125533966452E+04   -0.26593E-02   -0.10275E+00 43368   0.144E+00    0.409E-01
DAV:   2    -0.125534079777E+04   -0.11333E-02   -0.32314E-02 59544   0.305E-01    0.329E-01
DAV:   3    -0.125534048543E+04    0.31234E-03   -0.51548E-03 59844   0.115E-01    0.187E-01
DAV:   4    -0.125534017600E+04    0.30943E-03   -0.15435E-03 62292   0.649E-02    0.109E-01
DAV:   5    -0.125534008261E+04    0.93394E-04   -0.39445E-04 40596   0.425E-02
   7 F= -.12553401E+04 E0= -.12553401E+04  d E =-.306523E-02  mag=    39.9875
       N       E                     dE             d eps       ncg     rms          rms(c)
DAV:   1    -0.125534081425E+04   -0.63825E-03   -0.66840E-01 43392   0.114E+00    0.378E-01
DAV:   2    -0.125534088060E+04   -0.66348E-04   -0.27481E-02 55200   0.282E-01    0.319E-01
DAV:   3    -0.125534072058E+04    0.16002E-03   -0.42390E-03 62880   0.112E-01    0.178E-01
DAV:   4    -0.125534052991E+04    0.19066E-03   -0.15329E-03 60948   0.677E-02    0.131E-01
DAV:   5    -0.125534045252E+04    0.77394E-04   -0.37279E-04 44664   0.398E-02
   8 F= -.12553405E+04 E0= -.12553405E+04  d E =-.369913E-03  mag=    39.9897
       N       E                     dE             d eps       ncg     rms          rms(c)
DAV:   1    -0.125534242164E+04   -0.18917E-02   -0.21983E-01 43440   0.661E-01    0.250E-01
DAV:   2    -0.125534243146E+04   -0.98215E-05   -0.98855E-03 59748   0.173E-01    0.222E-01
DAV:   3    -0.125534229715E+04    0.13431E-03   -0.14709E-03 61440   0.654E-02    0.123E-01
DAV:   4    -0.125534221960E+04    0.77547E-04   -0.53439E-04 50448   0.375E-02
   9 F= -.12553422E+04 E0= -.12553422E+04  d E =-.176708E-02  mag=    39.9911
       N       E                     dE             d eps       ncg     rms          rms(c)
DAV:   1    -0.125534237690E+04   -0.79753E-04   -0.12804E-01 43500   0.497E-01    0.165E-01
DAV:   2    -0.125534258018E+04   -0.20328E-03   -0.53366E-03 59040   0.141E-01    0.171E-01
DAV:   3    -0.125534256059E+04    0.19594E-04   -0.10853E-03 55764   0.524E-02    0.116E-01
DAV:   4    -0.125534250202E+04    0.58572E-04   -0.22943E-04 32604   0.264E-02
  10 F= -.12553425E+04 E0= -.12553425E+04  d E =-.282416E-03  mag=    39.9923
       N       E                     dE             d eps       ncg     rms          rms(c)
DAV:   1    -0.125534284241E+04   -0.28182E-03   -0.65064E-02 43560   0.349E-01    0.125E-01
DAV:   2    -0.125534307233E+04   -0.22992E-03   -0.37306E-03 55440   0.115E-01    0.163E-01
DAV:   3    -0.125534301509E+04    0.57249E-04   -0.38778E-04 41796   0.369E-02
  11 F= -.12553430E+04 E0= -.12553430E+04  d E =-.513068E-03  mag=    39.9929
       N       E                     dE             d eps       ncg     rms          rms(c)
DAV:   1    -0.125534351417E+04   -0.44183E-03   -0.11223E-01 43824   0.483E-01    0.206E-01
DAV:   2    -0.125534337413E+04    0.14004E-03   -0.50938E-03 60732   0.124E-01    0.128E-01
DAV:   3    -0.125534331256E+04    0.61567E-04   -0.81083E-04 55908   0.603E-02
  12 F= -.12553433E+04 E0= -.12553433E+04  d E =-.297479E-03  mag=    39.9936
       N       E                     dE             d eps       ncg     rms          rms(c)
DAV:   1    -0.125534372694E+04   -0.35281E-03   -0.29673E-02 43608   0.245E-01    0.112E-01
DAV:   2    -0.125534366381E+04    0.63130E-04   -0.13628E-03 57816   0.666E-02    0.743E-02
DAV:   3    -0.125534364397E+04    0.19836E-04   -0.16509E-04 30204   0.304E-02
  13 F= -.12553436E+04 E0= -.12553436E+04  d E =-.331409E-03  mag=    39.9942
       N       E                     dE             d eps       ncg     rms          rms(c)
DAV:   1    -0.125534398865E+04   -0.32484E-03   -0.72355E-02 43488   0.383E-01    0.139E-01
DAV:   2    -0.125534396966E+04    0.18989E-04   -0.27079E-03 60156   0.845E-02    0.838E-02
DAV:   3    -0.125534393688E+04    0.32786E-04   -0.23029E-04 36396   0.345E-02
  14 F= -.12553439E+04 E0= -.12553439E+04  d E =-.292905E-03  mag=    39.9947
       N       E                     dE             d eps       ncg     rms          rms(c)
DAV:   1    -0.125534404695E+04   -0.77289E-04   -0.10221E-02 43764   0.142E-01    0.399E-02
DAV:   2    -0.125534406446E+04   -0.17503E-04   -0.26097E-04 28920   0.287E-02
  15 F= -.12553441E+04 E0= -.12553441E+04  d E =-.127578E-03  mag=    39.9950
       N       E                     dE             d eps       ncg     rms          rms(c)
DAV:   1    -0.125534428183E+04   -0.23488E-03   -0.42995E-02 43512   0.294E-01    0.803E-02
DAV:   2    -0.125534432385E+04   -0.42021E-04   -0.15653E-03 54828   0.649E-02    0.554E-02
DAV:   3    -0.125534430880E+04    0.15050E-04   -0.84349E-05 25584   0.260E-02
  16 F= -.12553443E+04 E0= -.12553443E+04  d E =-.244348E-03  mag=    39.9953
       N       E                     dE             d eps       ncg     rms          rms(c)
DAV:   1    -0.125534487479E+04   -0.55093E-03   -0.50558E-02 43368   0.322E-01    0.191E-01
DAV:   2    -0.125534466913E+04    0.20566E-03   -0.35937E-03 60900   0.111E-01    0.162E-01
DAV:   3    -0.125534458443E+04    0.84696E-04   -0.72445E-04 50640   0.493E-02
  17 F= -.12553446E+04 E0= -.12553446E+04  d E =-.275628E-03  mag=    39.9958
       N       E                     dE             d eps       ncg     rms          rms(c)
DAV:   1    -0.125534481975E+04   -0.15063E-03   -0.34393E-02 44448   0.265E-01    0.106E-01
DAV:   2    -0.125534482963E+04   -0.98707E-05   -0.22697E-03 60288   0.945E-02    0.130E-01
DAV:   3    -0.125534477145E+04    0.58175E-04   -0.23322E-04 33396   0.308E-02
  18 F= -.12553448E+04 E0= -.12553448E+04  d E =-.187018E-03  mag=    39.9962
       N       E                     dE             d eps       ncg     rms          rms(c)
DAV:   1    -0.125534494882E+04   -0.11919E-03   -0.33047E-02 43512   0.253E-01    0.602E-02
DAV:   2    -0.125534501342E+04   -0.64598E-04   -0.99148E-04 48312   0.486E-02
  19 F= -.12553450E+04 E0= -.12553450E+04  d E =-.241966E-03  mag=    39.9964
       N       E                     dE             d eps       ncg     rms          rms(c)
DAV:   1    -0.125534513491E+04   -0.18609E-03   -0.32384E-02 43332   0.252E-01    0.770E-02
DAV:   2    -0.125534521709E+04   -0.82172E-04   -0.12037E-03 53964   0.551E-02    0.632E-02
DAV:   3    -0.125534520740E+04    0.96861E-05   -0.71774E-05 24876   0.206E-02
  20 F= -.12553452E+04 E0= -.12553452E+04  d E =-.193984E-03  mag=    39.9967
