       N       E                     dE             d eps       ncg     rms          rms(c)
DAV:   1     0.111224876246E+05    0.11122E+05   -0.39392E+05 43032   0.125E+03
DAV:   2     0.104250827300E+04   -0.10080E+05   -0.92740E+04 44424   0.351E+02
DAV:   3    -0.142671557760E+04   -0.24692E+04   -0.23892E+04 48396   0.181E+02
DAV:   4    -0.164757361399E+04   -0.22086E+03   -0.21749E+03 64920   0.606E+01
DAV:   5    -0.165592917982E+04   -0.83556E+01   -0.82390E+01 67644   0.136E+01
DAV:   6    -0.165631107394E+04   -0.38189E+00   -0.37843E+00 68040   0.249E+00
DAV:   7    -0.165633371841E+04   -0.22644E-01   -0.22538E-01 68280   0.610E-01
DAV:   8    -0.165633533741E+04   -0.16190E-02   -0.16150E-02 63288   0.140E-01
DAV:   9    -0.165633546409E+04   -0.12668E-03   -0.12647E-03 44112   0.405E-02
DAV:  10    -0.165633547518E+04   -0.11095E-04   -0.11061E-04 36132   0.154E-02
DAV:  11    -0.165633547752E+04   -0.23380E-05   -0.23232E-05 33792   0.979E-03
DAV:  12    -0.165633547875E+04   -0.12297E-05   -0.12215E-05 32796   0.706E-03    0.166E+02
DAV:  13    -0.122295143895E+04    0.43338E+03   -0.25333E+03 64416   0.822E+01    0.106E+02
DAV:  14    -0.125934045229E+04   -0.36389E+02   -0.69876E+02 69984   0.578E+01    0.721E+01
DAV:  15    -0.125802649365E+04    0.13140E+01   -0.10660E+02 63480   0.265E+01    0.451E+01
DAV:  16    -0.125670107190E+04    0.13254E+01   -0.64086E+01 71124   0.266E+01    0.402E+01
DAV:  17    -0.125771580512E+04   -0.10147E+01   -0.30006E+01 64476   0.955E+00    0.201E+01
DAV:  18    -0.125629411872E+04    0.14217E+01   -0.10149E+01 64992   0.885E+00    0.102E+01
DAV:  19    -0.125607986701E+04    0.21425E+00   -0.30337E+00 64560   0.378E+00    0.632E+00
DAV:  20    -0.125613122325E+04   -0.51356E-01   -0.68891E-01 64260   0.189E+00    0.259E+00
DAV:  21    -0.125611409357E+04    0.17130E-01   -0.26528E-01 60876   0.128E+00    0.259E+00
DAV:  22    -0.125612285679E+04   -0.87632E-02   -0.12130E-01 65028   0.982E-01    0.857E-01
DAV:  23    -0.125612029746E+04    0.25593E-02   -0.20899E-02 56520   0.340E-01    0.549E-01
DAV:  24    -0.125612083369E+04   -0.53624E-03   -0.17781E-02 63216   0.251E-01    0.303E-01
DAV:  25    -0.125612038701E+04    0.44669E-03   -0.29198E-03 63420   0.135E-01    0.136E-01
DAV:  26    -0.125612037524E+04    0.11768E-04   -0.13112E-03 62232   0.644E-02    0.844E-02
DAV:  27    -0.125612037660E+04   -0.13588E-05   -0.15190E-04 26988   0.311E-02
   1 F= -.12561204E+04 E0= -.12561204E+04  d E =-.125612E+04  mag=    39.8758
       N       E                     dE             d eps       ncg     rms          rms(c)
DAV:   1    -0.125613345127E+04   -0.13076E-01   -0.68835E-01 44688   0.127E+00    0.841E-01
DAV:   2    -0.125612551627E+04    0.79350E-02   -0.52444E-02 63012   0.441E-01    0.725E-01
DAV:   3    -0.125612368241E+04    0.18339E-02   -0.95931E-03 62244   0.189E-01    0.326E-01
DAV:   4    -0.125612303499E+04    0.64741E-03   -0.20841E-03 64200   0.835E-02    0.209E-01
DAV:   5    -0.125612296615E+04    0.68843E-04   -0.81744E-04 54216   0.503E-02
   2 F= -.12561230E+04 E0= -.12561230E+04  d E =-.258955E-02  mag=    39.8980
       N       E                     dE             d eps       ncg     rms          rms(c)
DAV:   1    -0.125612255858E+04    0.47641E-03   -0.33710E-03 56952   0.965E-02    0.965E-02
DAV:   2    -0.125612250259E+04    0.55991E-04   -0.96962E-04 57204   0.554E-02
   3 F= -.12561225E+04 E0= -.12561225E+04  d E =0.463560E-03  mag=    39.9036
       N       E                     dE             d eps       ncg     rms          rms(c)
DAV:   1    -0.125612102187E+04    0.15367E-02   -0.51142E-01 43824   0.103E+00    0.427E-01
DAV:   2    -0.125611980916E+04    0.12127E-02   -0.13531E-02 57588   0.235E-01    0.299E-01
DAV:   3    -0.125611943233E+04    0.37683E-03   -0.31805E-03 62316   0.953E-02    0.206E-01
DAV:   4    -0.125611908988E+04    0.34245E-03   -0.67609E-04 53688   0.520E-02    0.104E-01
DAV:   5    -0.125611902402E+04    0.65860E-04   -0.28676E-04 34836   0.309E-02
   4 F= -.12561190E+04 E0= -.12561190E+04  d E =0.347857E-02  mag=    39.9203
       N       E                     dE             d eps       ncg     rms          rms(c)
DAV:   1    -0.125611691199E+04    0.21779E-02   -0.21693E-01 43800   0.678E-01    0.347E-01
DAV:   2    -0.125611603953E+04    0.87246E-03   -0.78275E-03 61008   0.158E-01    0.249E-01
DAV:   3    -0.125611560742E+04    0.43211E-03   -0.19240E-03 61488   0.822E-02    0.134E-01
DAV:   4    -0.125611541837E+04    0.18906E-03   -0.94396E-04 52764   0.492E-02    0.595E-02
DAV:   5    -0.125611537980E+04    0.38570E-04   -0.14171E-04 25236   0.288E-02
   5 F= -.12561154E+04 E0= -.12561154E+04  d E =0.364422E-02  mag=    39.9347
       N       E                     dE             d eps       ncg     rms          rms(c)
DAV:   1    -0.125616597584E+04   -0.50557E-01   -0.41417E+00 43308   0.297E+00    0.168E+00
DAV:   2    -0.125613154219E+04    0.34434E-01   -0.19885E-01 62052   0.814E-01    0.112E+00
DAV:   3    -0.125612595727E+04    0.55849E-02   -0.43495E-02 60888   0.420E-01    0.542E-01
DAV:   4    -0.125612320206E+04    0.27552E-02   -0.10400E-02 62520   0.170E-01    0.257E-01
DAV:   5    -0.125612264529E+04    0.55676E-03   -0.34644E-03 64080   0.988E-02    0.170E-01
DAV:   6    -0.125612255723E+04    0.88059E-04   -0.73313E-04 51036   0.489E-02
   6 F= -.12561226E+04 E0= -.12561226E+04  d E =-.717744E-02  mag=    39.9476
       N       E                     dE             d eps       ncg     rms          rms(c)
DAV:   1    -0.125612783586E+04   -0.51906E-02   -0.18861E+00 43272   0.189E+00    0.993E-01
DAV:   2    -0.125612085498E+04    0.69809E-02   -0.11315E-01 58740   0.609E-01    0.943E-01
DAV:   3    -0.125611944485E+04    0.14101E-02   -0.17216E-02 60636   0.246E-01    0.568E-01
DAV:   4    -0.125611811626E+04    0.13286E-02   -0.93671E-03 59868   0.151E-01    0.351E-01
DAV:   5    -0.125611772372E+04    0.39255E-03   -0.19723E-03 59628   0.110E-01    0.170E-01
DAV:   6    -0.125611775262E+04   -0.28902E-04   -0.19303E-03 62196   0.752E-02    0.715E-02
DAV:   7    -0.125611774272E+04    0.98960E-05   -0.43104E-04 42996   0.422E-02
   7 F= -.12561177E+04 E0= -.12561177E+04  d E =0.481451E-02  mag=    39.9598
       N       E                     dE             d eps       ncg     rms          rms(c)
DAV:   1    -0.125612652177E+04   -0.87692E-02   -0.73028E-01 43248   0.111E+00    0.476E-01
DAV:   2    -0.125612757126E+04   -0.10495E-02   -0.43158E-02 57720   0.373E-01    0.609E-01
DAV:   3    -0.125612733799E+04    0.23328E-03   -0.70015E-03 54444   0.126E-01    0.467E-01
DAV:   4    -0.125612655656E+04    0.78143E-03   -0.26497E-03 54024   0.736E-02    0.367E-01
DAV:   5    -0.125612632045E+04    0.23611E-03   -0.31720E-03 60552   0.988E-02    0.193E-01
DAV:   6    -0.125612622118E+04    0.99264E-04   -0.17093E-03 60912   0.749E-02    0.119E-01
DAV:   7    -0.125612614956E+04    0.71618E-04   -0.11304E-03 50700   0.490E-02    0.755E-02
DAV:   8    -0.125612615133E+04   -0.17707E-05   -0.99765E-05 25680   0.239E-02
   8 F= -.12561262E+04 E0= -.12561262E+04  d E =-.840861E-02  mag=    39.9697
       N       E                     dE             d eps       ncg     rms          rms(c)
DAV:   1    -0.125612668859E+04   -0.53903E-03   -0.30452E-02 44076   0.254E-01    0.117E-01
DAV:   2    -0.125612657633E+04    0.11227E-03   -0.16702E-03 63192   0.758E-02    0.103E-01
DAV:   3    -0.125612654274E+04    0.33585E-04   -0.22151E-04 34104   0.312E-02
   9 F= -.12561265E+04 E0= -.12561265E+04  d E =-.391407E-03  mag=    39.9724
       N       E                     dE             d eps       ncg     rms          rms(c)
DAV:   1    -0.125612682881E+04   -0.25249E-03   -0.27089E-01 43560   0.733E-01    0.197E-01
DAV:   2    -0.125612708928E+04   -0.26047E-03   -0.83875E-03 53952   0.144E-01    0.125E-01
DAV:   3    -0.125612704305E+04    0.46234E-04   -0.60132E-04 50172   0.501E-02
  10 F= -.12561270E+04 E0= -.12561270E+04  d E =-.500306E-03  mag=    39.9749
       N       E                     dE             d eps       ncg     rms          rms(c)
DAV:   1    -0.125612698354E+04    0.10574E-03   -0.69690E-02 43536   0.354E-01    0.136E-01
DAV:   2    -0.125612713051E+04   -0.14698E-03   -0.46928E-03 59808   0.134E-01    0.195E-01
DAV:   3    -0.125612709215E+04    0.38363E-04   -0.71281E-04 47604   0.402E-02
  11 F= -.12561271E+04 E0= -.12561271E+04  d E =-.491034E-04  mag=    39.9766
       N       E                     dE             d eps       ncg     rms          rms(c)
DAV:   1    -0.125612766702E+04   -0.53650E-03   -0.38524E-02 43992   0.290E-01    0.192E-01
DAV:   2    -0.125612754611E+04    0.12091E-03   -0.66109E-03 63684   0.144E-01    0.199E-01
DAV:   3    -0.125612730537E+04    0.24073E-03   -0.10114E-03 54936   0.599E-02    0.711E-02
DAV:   4    -0.125612729984E+04    0.55386E-05   -0.31207E-04 37416   0.256E-02
  12 F= -.12561273E+04 E0= -.12561273E+04  d E =-.207686E-03  mag=    39.9794
       N       E                     dE             d eps       ncg     rms          rms(c)
DAV:   1    -0.125612757331E+04   -0.26793E-03   -0.66489E-02 43572   0.363E-01    0.967E-02
DAV:   2    -0.125612765038E+04   -0.77073E-04   -0.24679E-03 60024   0.831E-02    0.829E-02
DAV:   3    -0.125612762816E+04    0.22222E-04   -0.18443E-04 32472   0.304E-02
  13 F= -.12561276E+04 E0= -.12561276E+04  d E =-.328323E-03  mag=    39.9811
       N       E                     dE             d eps       ncg     rms          rms(c)
DAV:   1    -0.125612776314E+04   -0.11276E-03   -0.16302E-02 43728   0.177E-01    0.484E-02
DAV:   2    -0.125612778508E+04   -0.21938E-04   -0.57447E-04 42792   0.409E-02
  14 F= -.12561278E+04 E0= -.12561278E+04  d E =-.156923E-03  mag=    39.9821
       N       E                     dE             d eps       ncg     rms          rms(c)
DAV:   1    -0.125612791316E+04   -0.15001E-03   -0.42799E-02 43608   0.288E-01    0.622E-02
DAV:   2    -0.125612801878E+04   -0.10563E-03   -0.14753E-03 56616   0.622E-02    0.579E-02
DAV:   3    -0.125612800078E+04    0.18009E-04   -0.91220E-05 25716   0.204E-02
  15 F= -.12561280E+04 E0= -.12561280E+04  d E =-.215694E-03  mag=    39.9836
       N       E                     dE             d eps       ncg     rms          rms(c)
DAV:   1    -0.125612809356E+04   -0.74774E-04   -0.70442E-03 43284   0.117E-01    0.274E-02
DAV:   2    -0.125612810117E+04   -0.76096E-05   -0.20168E-04 26832   0.252E-02
  16 F= -.12561281E+04 E0= -.12561281E+04  d E =-.100393E-03  mag=    39.9844
       N       E                     dE             d eps       ncg     rms          rms(c)
DAV:   1    -0.125612820541E+04   -0.11185E-03   -0.19622E-02 43680   0.194E-01    0.345E-02
DAV:   2    -0.125612825055E+04   -0.45142E-04   -0.58200E-04 40932   0.388E-02
  17 F= -.12561283E+04 E0= -.12561283E+04  d E =-.149382E-03  mag=    39.9853
       N       E                     dE             d eps       ncg     rms          rms(c)
DAV:   1    -0.125612832398E+04   -0.11857E-03   -0.54690E-03 43140   0.103E-01    0.312E-02
DAV:   2    -0.125612832324E+04    0.73759E-06   -0.18717E-04 28452   0.271E-02
  18 F= -.12561283E+04 E0= -.12561283E+04  d E =-.726896E-04  mag=    39.9860
       N       E                     dE             d eps       ncg     rms          rms(c)
DAV:   1    -0.125612845494E+04   -0.13096E-03   -0.52768E-02 43428   0.317E-01    0.528E-02
DAV:   2    -0.125612858429E+04   -0.12935E-03   -0.14279E-03 49980   0.557E-02    0.337E-02
DAV:   3    -0.125612857979E+04    0.44961E-05   -0.48771E-05 22872   0.137E-02
  19 F= -.12561286E+04 E0= -.12561286E+04  d E =-.256553E-03  mag=    39.9871
       N       E                     dE             d eps       ncg     rms          rms(c)
DAV:   1    -0.125612836111E+04    0.22318E-03   -0.20590E-02 43536   0.199E-01    0.298E-02
DAV:   2    -0.125612841213E+04   -0.51025E-04   -0.57412E-04 39756   0.359E-02
  20 F= -.12561284E+04 E0= -.12561284E+04  d E =0.167662E-03  mag=    39.9879
       N       E                     dE             d eps       ncg     rms          rms(c)
DAV:   1    -0.125612838284E+04   -0.21729E-04   -0.98979E-04 38928   0.453E-02    0.191E-02
DAV:   2    -0.125612838181E+04    0.10253E-05   -0.38167E-05 22656   0.128E-02
  21 F= -.12561284E+04 E0= -.12561284E+04  d E =0.303210E-04  mag=    39.9886
       N       E                     dE             d eps       ncg     rms          rms(c)
DAV:   1    -0.125612855237E+04   -0.16953E-03   -0.64886E-02 43344   0.357E-01    0.974E-02
DAV:   2    -0.125612861555E+04   -0.63183E-04   -0.21843E-03 57060   0.768E-02    0.832E-02
DAV:   3    -0.125612859829E+04    0.17260E-04   -0.16513E-04 31032   0.272E-02
  22 F= -.12561286E+04 E0= -.12561286E+04  d E =-.216479E-03  mag=    39.9896
       N       E                     dE             d eps       ncg     rms          rms(c)
DAV:   1    -0.125612870787E+04   -0.92324E-04   -0.10787E-02 43536   0.145E-01    0.415E-02
DAV:   2    -0.125612873010E+04   -0.22230E-04   -0.36160E-04 35268   0.331E-02
  23 F= -.12561287E+04 E0= -.12561287E+04  d E =-.131813E-03  mag=    39.9902
       N       E                     dE             d eps       ncg     rms          rms(c)
DAV:   1    -0.125612888873E+04   -0.18085E-03   -0.27021E-02 43404   0.232E-01    0.729E-02
DAV:   2    -0.125612889490E+04   -0.61740E-05   -0.95818E-04 51744   0.536E-02
  24 F= -.12561289E+04 E0= -.12561289E+04  d E =-.164798E-03  mag=    39.9907
       N       E                     dE             d eps       ncg     rms          rms(c)
DAV:   1    -0.125612901388E+04   -0.12515E-03   -0.20326E-02 43452   0.202E-01    0.716E-02
DAV:   2    -0.125612900958E+04    0.42995E-05   -0.94098E-04 54096   0.554E-02
  25 F= -.12561290E+04 E0= -.12561290E+04  d E =-.114675E-03  mag=    39.9912
       N       E                     dE             d eps       ncg     rms          rms(c)
DAV:   1    -0.125612880569E+04    0.20819E-03   -0.30499E-01 43128   0.765E-01    0.163E-01
DAV:   2    -0.125612952076E+04   -0.71507E-03   -0.84823E-03 51024   0.139E-01    0.109E-01
DAV:   3    -0.125612950107E+04    0.19684E-04   -0.37195E-04 40044   0.336E-02
  26 F= -.12561295E+04 E0= -.12561295E+04  d E =-.491496E-03  mag=    39.9921
       N       E                     dE             d eps       ncg     rms          rms(c)
DAV:   1    -0.125612794452E+04    0.15762E-02   -0.39717E-01 43152   0.875E-01    0.162E-01
DAV:   2    -0.125612893869E+04   -0.99417E-03   -0.11038E-02 50388   0.155E-01    0.974E-02
DAV:   3    -0.125612894527E+04   -0.65779E-05   -0.49216E-04 45192   0.365E-02
  27 F= -.12561289E+04 E0= -.12561289E+04  d E =0.555802E-03  mag=    39.9928
       N       E                     dE             d eps       ncg     rms          rms(c)
DAV:   1    -0.125612954827E+04   -0.60958E-03   -0.83997E-02 43572   0.423E-01    0.211E-01
DAV:   2    -0.125612920310E+04    0.34516E-03   -0.55436E-03 61008   0.136E-01    0.196E-01
DAV:   3    -0.125612907846E+04    0.12464E-03   -0.91146E-04 56016   0.555E-02    0.935E-02
DAV:   4    -0.125612903909E+04    0.39369E-04   -0.12567E-04 27048   0.245E-02
  28 F= -.12561290E+04 E0= -.12561290E+04  d E =-.938218E-04  mag=    39.9938
       N       E                     dE             d eps       ncg     rms          rms(c)
DAV:   1    -0.125612943981E+04   -0.36135E-03   -0.77146E-02 43272   0.393E-01    0.125E-01
DAV:   2    -0.125612949273E+04   -0.52924E-04   -0.36726E-03 59796   0.111E-01    0.132E-01
DAV:   3    -0.125612942085E+04    0.71886E-04   -0.37298E-04 40812   0.390E-02
  29 F= -.12561294E+04 E0= -.12561294E+04  d E =-.381755E-03  mag=    39.9943
       N       E                     dE             d eps       ncg     rms          rms(c)
DAV:   1    -0.125612960192E+04   -0.10919E-03   -0.23621E-02 43500   0.221E-01    0.116E-01
DAV:   2    -0.125612951926E+04    0.82659E-04   -0.95496E-04 48444   0.528E-02
  30 F= -.12561295E+04 E0= -.12561295E+04  d E =-.984124E-04  mag=    39.9947
       N       E                     dE             d eps       ncg     rms          rms(c)
DAV:   1    -0.125612956521E+04    0.36709E-04   -0.10602E-02 43536   0.142E-01    0.666E-02
DAV:   2    -0.125612958109E+04   -0.15885E-04   -0.64086E-04 48876   0.463E-02
  31 F= -.12561296E+04 E0= -.12561296E+04  d E =-.618353E-04  mag=    39.9950
       N       E                     dE             d eps       ncg     rms          rms(c)
DAV:   1    -0.125612953533E+04    0.29881E-04   -0.47167E-03 43428   0.959E-02    0.608E-02
DAV:   2    -0.125612952040E+04    0.14932E-04   -0.21540E-04 34188   0.314E-02
  32 F= -.12561295E+04 E0= -.12561295E+04  d E =0.606972E-04  mag=    39.9953
       N       E                     dE             d eps       ncg     rms          rms(c)
DAV:   1    -0.125612959425E+04   -0.58926E-04   -0.12930E-02 43212   0.154E-01    0.452E-02
DAV:   2    -0.125612962762E+04   -0.33369E-04   -0.62844E-04 47160   0.434E-02
  33 F= -.12561296E+04 E0= -.12561296E+04  d E =-.107228E-03  mag=    39.9955
       N       E                     dE             d eps       ncg     rms          rms(c)
DAV:   1    -0.125612986495E+04   -0.27070E-03   -0.50014E-02 43608   0.314E-01    0.154E-01
DAV:   2    -0.125612970935E+04    0.15560E-03   -0.32752E-03 60660   0.105E-01    0.153E-01
DAV:   3    -0.125612964287E+04    0.66480E-04   -0.49875E-04 46152   0.414E-02
  34 F= -.12561296E+04 E0= -.12561296E+04  d E =-.152467E-04  mag=    39.9959
       N       E                     dE             d eps       ncg     rms          rms(c)
DAV:   1    -0.125612967133E+04    0.38020E-04   -0.13076E-01 43104   0.482E-01    0.202E-01
DAV:   2    -0.125612994163E+04   -0.27030E-03   -0.10598E-02 60420   0.189E-01    0.297E-01
DAV:   3    -0.125612976081E+04    0.18082E-03   -0.12646E-03 54576   0.573E-02    0.208E-01
DAV:   4    -0.125612962152E+04    0.13929E-03   -0.68372E-04 47628   0.382E-02    0.166E-01
DAV:   5    -0.125612960473E+04    0.16788E-04   -0.31626E-04 39432   0.292E-02
  35 F= -.12561296E+04 E0= -.12561296E+04  d E =0.381374E-04  mag=    39.9966
       N       E                     dE             d eps       ncg     rms          rms(c)
DAV:   1    -0.125613023905E+04   -0.61753E-03   -0.46271E-02 43560   0.300E-01    0.153E-01
DAV:   2    -0.125613018440E+04    0.54653E-04   -0.37756E-03 59436   0.120E-01    0.189E-01
DAV:   3    -0.125613008779E+04    0.96606E-04   -0.46570E-04 44184   0.390E-02
  36 F= -.12561301E+04 E0= -.12561301E+04  d E =-.483056E-03  mag=    39.9970
       N       E                     dE             d eps       ncg     rms          rms(c)
DAV:   1    -0.125613004739E+04    0.13700E-03   -0.80857E-02 43152   0.396E-01    0.145E-01
DAV:   2    -0.125613018447E+04   -0.13707E-03   -0.39193E-03 59640   0.118E-01    0.165E-01
DAV:   3    -0.125613014092E+04    0.43548E-04   -0.56050E-04 48456   0.409E-02
  37 F= -.12561301E+04 E0= -.12561301E+04  d E =-.531280E-04  mag=    39.9972
       N       E                     dE             d eps       ncg     rms          rms(c)
DAV:   1    -0.125613031466E+04   -0.13019E-03   -0.11636E-02 43680   0.154E-01    0.889E-02
DAV:   2    -0.125613034239E+04   -0.27731E-04   -0.13876E-03 61932   0.667E-02    0.982E-02
DAV:   3    -0.125613029375E+04    0.48639E-04   -0.12372E-04 30060   0.250E-02
  38 F= -.12561303E+04 E0= -.12561303E+04  d E =-.152833E-03  mag=    39.9975
       N       E                     dE             d eps       ncg     rms          rms(c)
DAV:   1    -0.125613037879E+04   -0.36404E-04   -0.45931E-02 43140   0.293E-01    0.808E-02
DAV:   2    -0.125613043513E+04   -0.56333E-04   -0.13173E-03 57960   0.794E-02    0.861E-02
DAV:   3    -0.125613044263E+04   -0.75006E-05   -0.30719E-04 38400   0.285E-02
  39 F= -.12561304E+04 E0= -.12561304E+04  d E =-.148876E-03  mag=    39.9976
       N       E                     dE             d eps       ncg     rms          rms(c)
DAV:   1    -0.125613052725E+04   -0.92124E-04   -0.13611E-02 43260   0.161E-01    0.421E-02
DAV:   2    -0.125613057406E+04   -0.46810E-04   -0.72677E-04 49392   0.484E-02
  40 F= -.12561306E+04 E0= -.12561306E+04  d E =-.131434E-03  mag=    39.9978
       N       E                     dE             d eps       ncg     rms          rms(c)
DAV:   1    -0.125613061117E+04   -0.83922E-04   -0.17486E-03 40584   0.599E-02    0.341E-02
DAV:   2    -0.125613060291E+04    0.82602E-05   -0.11548E-04 23388   0.217E-02
  41 F= -.12561306E+04 E0= -.12561306E+04  d E =-.288517E-04  mag=    39.9979
       N       E                     dE             d eps       ncg     rms          rms(c)
DAV:   1    -0.125613068402E+04   -0.72850E-04   -0.49776E-02 43152   0.311E-01    0.708E-02
DAV:   2    -0.125613076649E+04   -0.82472E-04   -0.16169E-03 54852   0.676E-02    0.684E-02
DAV:   3    -0.125613075908E+04    0.74128E-05   -0.13251E-04 28236   0.227E-02
  42 F= -.12561308E+04 E0= -.12561308E+04  d E =-.156170E-03  mag=    39.9981
       N       E                     dE             d eps       ncg     rms          rms(c)
DAV:   1    -0.125613086264E+04   -0.96149E-04   -0.17261E-02 43248   0.182E-01    0.440E-02
DAV:   2    -0.125613089991E+04   -0.37264E-04   -0.52412E-04 44484   0.376E-02
  43 F= -.12561309E+04 E0= -.12561309E+04  d E =-.140826E-03  mag=    39.9982
       N       E                     dE             d eps       ncg     rms          rms(c)
DAV:   1    -0.125613099168E+04   -0.12904E-03   -0.24304E-02 43260   0.216E-01    0.661E-02
DAV:   2    -0.125613102948E+04   -0.37801E-04   -0.73602E-04 47856   0.443E-02
  44 F= -.12561310E+04 E0= -.12561310E+04  d E =-.129578E-03  mag=    39.9983
       N       E                     dE             d eps       ncg     rms          rms(c)
DAV:   1    -0.125613103005E+04   -0.38370E-04   -0.64520E-02 43092   0.350E-01    0.123E-01
DAV:   2    -0.125613120188E+04   -0.17183E-03   -0.19357E-03 56172   0.700E-02    0.782E-02
DAV:   3    -0.125613120010E+04    0.17769E-05   -0.11832E-04 30000   0.235E-02
  45 F= -.12561312E+04 E0= -.12561312E+04  d E =-.170618E-03  mag=    39.9984
       N       E                     dE             d eps       ncg     rms          rms(c)
DAV:   1    -0.125613119436E+04    0.75181E-05   -0.45153E-04 38844   0.307E-02    0.361E-02
DAV:   2    -0.125613119120E+04    0.31571E-05   -0.25636E-05 22920   0.107E-02
  46 F= -.12561312E+04 E0= -.12561312E+04  d E =0.889823E-05  mag=    39.9985
       N       E                     dE             d eps       ncg     rms          rms(c)
DAV:   1    -0.125613130794E+04   -0.11357E-03   -0.14422E-02 43248   0.175E-01    0.851E-02
DAV:   2    -0.125613123814E+04    0.69793E-04   -0.67619E-04 47628   0.465E-02
  47 F= -.12561312E+04 E0= -.12561312E+04  d E =-.469375E-04  mag=    39.9986
       N       E                     dE             d eps       ncg     rms          rms(c)
DAV:   1    -0.125613128121E+04    0.26722E-04   -0.82172E-02 43128   0.401E-01    0.907E-02
DAV:   2    -0.125613143889E+04   -0.15768E-03   -0.26893E-03 55812   0.857E-02    0.812E-02
DAV:   3    -0.125613142239E+04    0.16503E-04   -0.16453E-04 30756   0.272E-02
  48 F= -.12561314E+04 E0= -.12561314E+04  d E =-.184248E-03  mag=    39.9987
       N       E                     dE             d eps       ncg     rms          rms(c)
DAV:   1    -0.125613155846E+04   -0.11956E-03   -0.22303E-02 43128   0.212E-01    0.846E-02
DAV:   2    -0.125613154384E+04    0.14613E-04   -0.11666E-03 57252   0.579E-02    0.732E-02
DAV:   3    -0.125613152035E+04    0.23497E-04   -0.13575E-04 27384   0.244E-02
  49 F= -.12561315E+04 E0= -.12561315E+04  d E =-.979571E-04  mag=    39.9988
       N       E                     dE             d eps       ncg     rms          rms(c)
DAV:   1    -0.125613155381E+04   -0.99622E-05   -0.67618E-02 43104   0.361E-01    0.721E-02
DAV:   2    -0.125613171322E+04   -0.15942E-03   -0.20311E-03 57228   0.719E-02    0.690E-02
DAV:   3    -0.125613170403E+04    0.91928E-05   -0.78218E-05 25464   0.207E-02
  50 F= -.12561317E+04 E0= -.12561317E+04  d E =-.183682E-03  mag=    39.9989
       N       E                     dE             d eps       ncg     rms          rms(c)
DAV:   1    -0.125613179840E+04   -0.85177E-04   -0.22913E-02 43176   0.211E-01    0.461E-02
DAV:   2    -0.125613184760E+04   -0.49197E-04   -0.64853E-04 44496   0.395E-02
  51 F= -.12561318E+04 E0= -.12561318E+04  d E =-.143567E-03  mag=    39.9990
