BiTiFeO                                 
           1
    10.982519   -0.000648    0.004347
    -0.003533    5.478224   -0.000440
     0.214644    0.021669   41.180333
   Bi   Ti   O    Fe
  40  24 120   8
Direct configuration=     1
   0.12436647  0.24906468  0.10357381
   0.62436646  0.24906468  0.10357381
   0.11786585  0.27418974  0.22035827
   0.61786586  0.27418974  0.22035827
   0.12436647  0.74906468  0.60357380
   0.62436646  0.74906468  0.60357380
   0.11786585  0.77418977  0.72035825
   0.61786586  0.77418977  0.72035825
   0.37527060  0.75431055  0.89352137
   0.87527060  0.75431055  0.89352137
   0.35888317  0.72927117  0.78177780
   0.85888314  0.72927117  0.78177780
   0.37527060  0.25431055  0.39352143
   0.87527060  0.25431055  0.39352143
   0.35888317  0.22927117  0.28177777
   0.85888314  0.22927117  0.28177777
   0.37452632  0.75150418  0.10369585
   0.87452632  0.75150418  0.10369585
   0.37287077  0.73094141  0.22026768
   0.87287080  0.73094141  0.22026768
   0.37452632  0.25150421  0.60369587
   0.87452632  0.25150421  0.60369587
   0.37287077  0.23094143  0.72026771
   0.87287080  0.23094143  0.72026771
   0.12387764  0.24466224  0.89357156
   0.62387765  0.24466224  0.89357156
   0.11613528  0.28128836  0.78147262
   0.61613530  0.28128836  0.78147262
   0.12387764  0.74466228  0.39357158
   0.62387765  0.74466228  0.39357158
   0.11613528  0.78128833  0.28147265
   0.61613530  0.78128833  0.28147265
   0.12448124  0.24198382  0.99722254
   0.62448126  0.24198382  0.99722254
   0.12448124  0.74198383  0.49722254
   0.62448126  0.74198383  0.49722254
   0.37713569  0.75527310  0.99728447
   0.87713569  0.75527310  0.99728447
   0.37713569  0.25527310  0.49728441
   0.87713569  0.25527310  0.49728441
   0.39613417  0.75179225  0.34761685
   0.89613414  0.75179225  0.34761685
   0.39613417  0.25179225  0.84761685
   0.89613414  0.25179225  0.84761685
   0.39607924  0.74981528  0.65229768
   0.89607924  0.74981528  0.65229768
   0.39607924  0.24981531  0.15229766
   0.89607924  0.24981531  0.15229766
   0.14659657  0.24883559  0.54923701
   0.64659655  0.24883559  0.54923701
   0.14576946  0.24933810  0.65237552
   0.64576948  0.24933810  0.65237552
   0.14576946  0.74933809  0.15237550
   0.64576948  0.74933809  0.15237550
   0.14659657  0.74883556  0.04923701
   0.64659655  0.74883556  0.04923701
   0.15035427  0.24491657  0.45045221
   0.65035427  0.24491657  0.45045221
   0.15035427  0.74491656  0.95045221
   0.65035427  0.74491656  0.95045221
   0.39608803  0.75161582  0.54892093
   0.89608800  0.75161582  0.54892093
   0.39608803  0.25161582  0.04892092
   0.89608800  0.25161582  0.04892092
   0.29553995  0.54038584  0.05561873
   0.79553997  0.54038584  0.05561873
   0.15889157  0.31467709  0.40525061
   0.65889156  0.31467709  0.40525061
   0.26120701  0.47278428  0.13711581
   0.76120699  0.47278428  0.13711581
   0.15381242  0.18322389  0.30227575
   0.65381241  0.18322389  0.30227575
   0.25085411  0.49711448  0.25077957
   0.75085413  0.49711448  0.25077957
   0.01059094  0.96753520  0.03962856
   0.51059091  0.96753520  0.03962856
   0.05093517  0.05393025  0.14885569
   0.55093515  0.05393025  0.14885569
   0.29553995  0.04038584  0.55561870
   0.79553997  0.04038584  0.55561870
   0.15889157  0.81467712  0.90525061
   0.65889156  0.81467712  0.90525061
   0.26120701  0.97278434  0.63711578
   0.76120699  0.97278434  0.63711578
   0.15381242  0.68322384  0.80227572
   0.65381241  0.68322384  0.80227572
   0.25085411  0.99711448  0.75077963
   0.75085413  0.99711448  0.75077963
   0.01059094  0.46753526  0.53962857
   0.51059091  0.46753526  0.53962857
   0.05093517  0.55393028  0.64885569
   0.55093515  0.55393028  0.64885569
   0.05875509  0.43979773  0.94839644
   0.55875510  0.43979773  0.94839644
   0.41048533  0.67762893  0.59622639
   0.91048533  0.67762893  0.59622639
   0.01306546  0.52539533  0.86211169
   0.51306546  0.52539533  0.86211169
   0.39433193  0.80686533  0.69523448
   0.89433193  0.80686533  0.69523448
   0.99988473  0.50450885  0.74900907
   0.49988473  0.50450885  0.74900907
   0.26152647  0.03390570  0.96254122
   0.76152647  0.03390570  0.96254122
   0.29635727  0.95437449  0.85137761
   0.79635727  0.95437449  0.85137761
   0.05875509  0.93979776  0.44839639
   0.55875510  0.93979776  0.44839639
   0.41048533  0.17762896  0.09622640
   0.91048533  0.17762896  0.09622640
   0.01306546  0.02539535  0.36211169
   0.51306546  0.02539535  0.36211169
   0.39433193  0.30686531  0.19523448
   0.89433193  0.30686531  0.19523448
   0.99988473  0.00450889  0.24900909
   0.49988473  0.00450889  0.24900909
   0.26152647  0.53390574  0.46254116
   0.76152647  0.53390574  0.46254116
   0.29635727  0.45437452  0.35137764
   0.79635727  0.45437452  0.35137764
   0.04549716  0.46061844  0.05569835
   0.54549718  0.46061844  0.05569835
   0.41211089  0.68446332  0.40384549
   0.91211093  0.68446332  0.40384549
   0.01132336  0.52634144  0.13678525
   0.51132333  0.52634144  0.13678525
   0.39571554  0.80988812  0.30406094
   0.89571554  0.80988812  0.30406094
   0.00005316  0.50714874  0.25103867
   0.50005317  0.50714874  0.25103867
   0.26002577  0.03277555  0.03977370
   0.76002574  0.03277555  0.03977370
   0.30093050  0.94514430  0.14907740
   0.80093050  0.94514430  0.14907740
   0.04549716  0.96061844  0.55569840
   0.54549718  0.96061844  0.55569840
   0.41211089  0.18446335  0.90384549
   0.91211093  0.18446335  0.90384549
   0.01132336  0.02634142  0.63678521
   0.51132333  0.02634142  0.63678521
   0.39571554  0.30988812  0.80406088
   0.89571554  0.30988812  0.80406088
   0.00005316  0.00714878  0.75103867
   0.50005317  0.00714878  0.75103867
   0.26002577  0.53277558  0.53977364
   0.76002574  0.53277558  0.53977364
   0.30093050  0.44514430  0.64907742
   0.80093050  0.44514430  0.64907742
   0.30891901  0.56176126  0.94854957
   0.80891901  0.56176126  0.94854957
   0.16018774  0.32152131  0.59628534
   0.66018772  0.32152131  0.59628534
   0.26301962  0.47737643  0.86231440
   0.76301962  0.47737643  0.86231440
   0.13889876  0.19121712  0.69520980
   0.63889873  0.19121712  0.69520980
   0.25133357  0.49404845  0.74847358
   0.75133359  0.49404845  0.74847358
   0.01215811  0.96243888  0.96234196
   0.51215810  0.96243888  0.96234196
   0.04801726  0.04652590  0.85086650
   0.54801726  0.04652590  0.85086650
   0.30891901  0.06176122  0.44854963
   0.80891901  0.06176122  0.44854963
   0.16018774  0.82152134  0.09628538
   0.66018772  0.82152134  0.09628538
   0.26301962  0.97737640  0.36231440
   0.76301962  0.97737640  0.36231440
   0.13889876  0.69121712  0.19520979
   0.63889873  0.69121712  0.19520979
   0.25133357  0.99404848  0.24847357
   0.75133359  0.99404848  0.24847357
   0.01215811  0.46243888  0.46234196
   0.51215810  0.46243888  0.46234196
   0.04801726  0.54652590  0.35086659
   0.54801726  0.54652590  0.35086659
   0.16247103  0.16867146  0.50101316
   0.66247106  0.16867146  0.50101316
   0.16247103  0.66867149  0.00101316
   0.66247106  0.66867149  0.00101316
   0.41332203  0.83095449  0.50110382
   0.91332203  0.83095449  0.50110382
   0.41332203  0.33095455  0.00110380
   0.91332203  0.33095455  0.00110380
   0.14548412  0.24605009  0.34577256
   0.64548409  0.24605009  0.34577256
   0.14548412  0.74605006  0.84577256
   0.64548409  0.74605006  0.84577256
   0.39786002  0.75212413  0.44972161
   0.89786005  0.75212413  0.44972161
   0.39786002  0.25212416  0.94972157
   0.89786005  0.25212416  0.94972157
BiTiFeO                                 
           1
    10.984998   -0.000629    0.004632
    -0.003524    5.479177   -0.000432
     0.215758    0.021736   41.191345
   Bi   Ti   O    Fe
  40  24 120   8
Direct configuration=     2
   0.12436393  0.24907151  0.10357185
   0.62436393  0.24907151  0.10357185
   0.11784319  0.27419901  0.22035445
   0.61784320  0.27419901  0.22035445
   0.12436393  0.74907151  0.60357184
   0.62436393  0.74907151  0.60357184
   0.11784319  0.77419904  0.72035443
   0.61784320  0.77419904  0.72035443
   0.37527126  0.75433777  0.89351977
   0.87527126  0.75433777  0.89351977
   0.35885920  0.72928320  0.78176983
   0.85885917  0.72928320  0.78176983
   0.37527126  0.25433777  0.39351983
   0.87527126  0.25433777  0.39351983
   0.35885920  0.22928320  0.28176980
   0.85885917  0.22928320  0.28176980
   0.37452525  0.75150138  0.10369399
   0.87452525  0.75150138  0.10369399
   0.37285253  0.73094737  0.22026457
   0.87285256  0.73094737  0.22026457
   0.37452525  0.25150141  0.60369401
   0.87452525  0.25150141  0.60369401
   0.37285253  0.23094738  0.72026460
   0.87285256  0.23094738  0.72026460
   0.12387023  0.24463878  0.89356975
   0.62387024  0.24463878  0.89356975
   0.11611906  0.28129381  0.78146451
   0.61611908  0.28129381  0.78146451
   0.12387023  0.74463883  0.39356977
   0.62387024  0.74463883  0.39356977
   0.11611906  0.78129378  0.28146454
   0.61611908  0.78129378  0.28146454
   0.12449609  0.24196817  0.99722601
   0.62449612  0.24196817  0.99722601
   0.12449609  0.74196818  0.49722601
   0.62449612  0.74196818  0.49722601
   0.37714940  0.75528038  0.99728796
   0.87714940  0.75528038  0.99728796
   0.37714940  0.25528038  0.49728790
   0.87714940  0.25528038  0.49728790
   0.39612515  0.75178204  0.34762681
   0.89612512  0.75178204  0.34762681
   0.39612515  0.25178204  0.84762681
   0.89612512  0.25178204  0.84762681
   0.39607630  0.74980644  0.65228751
   0.89607630  0.74980644  0.65228751
   0.39607630  0.24980647  0.15228749
   0.89607630  0.24980647  0.15228749
   0.14659755  0.24883268  0.54923895
   0.64659753  0.24883268  0.54923895
   0.14576563  0.24934653  0.65236514
   0.64576564  0.24934653  0.65236514
   0.14576563  0.74934652  0.15236513
   0.64576564  0.74934652  0.15236513
   0.14659755  0.74883265  0.04923895
   0.64659753  0.74883265  0.04923895
   0.15036475  0.24491650  0.45045675
   0.65036475  0.24491650  0.45045675
   0.15036475  0.74491648  0.95045675
   0.65036475  0.74491648  0.95045675
   0.39609111  0.75161601  0.54892220
   0.89609108  0.75161601  0.54892220
   0.39609111  0.25161601  0.04892219
   0.89609108  0.25161601  0.04892219
   0.29551431  0.54032161  0.05562268
   0.79551434  0.54032161  0.05562268
   0.15888808  0.31467332  0.40525778
   0.65888807  0.31467332  0.40525778
   0.26123202  0.47276850  0.13711349
   0.76123199  0.47276850  0.13711349
   0.15384388  0.18321016  0.30226818
   0.65384387  0.18321016  0.30226818
   0.25081706  0.49711549  0.25077547
   0.75081709  0.49711549  0.25077547
   0.01060298  0.96756753  0.03962913
   0.51060296  0.96756753  0.03962913
   0.05090585  0.05392465  0.14885431
   0.55090582  0.05392465  0.14885431
   0.29551431  0.04032161  0.55562266
   0.79551434  0.04032161  0.55562266
   0.15888808  0.81467335  0.90525778
   0.65888807  0.81467335  0.90525778
   0.26123202  0.97276856  0.63711346
   0.76123199  0.97276856  0.63711346
   0.15384388  0.68321012  0.80226815
   0.65384387  0.68321012  0.80226815
   0.25081706  0.99711549  0.75077553
   0.75081709  0.99711549  0.75077553
   0.01060298  0.46756759  0.53962913
   0.51060296  0.46756759  0.53962913
   0.05090585  0.55392468  0.64885431
   0.55090582  0.55392468  0.64885431
   0.05882015  0.43978451  0.94839962
   0.55882015  0.43978451  0.94839962
   0.41051604  0.67760090  0.59622732
   0.91051604  0.67760090  0.59622732
   0.01302713  0.52537360  0.86211035
   0.51302713  0.52537360  0.86211035
   0.39435614  0.80689694  0.69523764
   0.89435614  0.80689694  0.69523764
   0.99986399  0.50452598  0.74900653
   0.49986399  0.50452598  0.74900653
   0.26158020  0.03391055  0.96254631
   0.76158020  0.03391055  0.96254631
   0.29633288  0.95447399  0.85138234
   0.79633288  0.95447399  0.85138234
   0.05882015  0.93978454  0.44839956
   0.55882015  0.93978454  0.44839956
   0.41051604  0.17760093  0.09622732
   0.91051604  0.17760093  0.09622732
   0.01302713  0.02537362  0.36211035
   0.51302713  0.02537362  0.36211035
   0.39435614  0.30689691  0.19523764
   0.89435614  0.30689691  0.19523764
   0.99986399  0.00452601  0.24900655
   0.49986399  0.00452601  0.24900655
   0.26158020  0.53391060  0.46254625
   0.76158020  0.53391060  0.46254625
   0.29633288  0.45447402  0.35138237
   0.79633288  0.45447402  0.35138237
   0.04549059  0.46067551  0.05570215
   0.54549061  0.46067551  0.05570215
   0.41214326  0.68446373  0.40384986
   0.91214329  0.68446373  0.40384986
   0.01130128  0.52635323  0.13678151
   0.51130125  0.52635323  0.13678151
   0.39572284  0.80989691  0.30405567
   0.89572284  0.80989691  0.30405567
   0.00003497  0.50715832  0.25103542
   0.50003498  0.50715832  0.25103542
   0.26006645  0.03273761  0.03977358
   0.76006642  0.03273761  0.03977358
   0.30097494  0.94515094  0.14907770
   0.80097494  0.94515094  0.14907770
   0.04549059  0.96067551  0.55570220
   0.54549061  0.96067551  0.55570220
   0.41214326  0.18446376  0.90384986
   0.91214329  0.18446376  0.90384986
   0.01130128  0.02635322  0.63678147
   0.51130125  0.02635322  0.63678147
   0.39572284  0.30989691  0.80405561
   0.89572284  0.30989691  0.80405561
   0.00003497  0.00715835  0.75103542
   0.50003498  0.00715835  0.75103542
   0.26006645  0.53273764  0.53977352
   0.76006642  0.53273764  0.53977352
   0.30097494  0.44515094  0.64907772
   0.80097494  0.44515094  0.64907772
   0.30891189  0.56177491  0.94855265
   0.80891189  0.56177491  0.94855265
   0.16016963  0.32154365  0.59628587
   0.66016962  0.32154365  0.59628587
   0.26307267  0.47737311  0.86231419
   0.76307267  0.47737311  0.86231419
   0.13888356  0.19119199  0.69521352
   0.63888353  0.19119199  0.69521352
   0.25128807  0.49404697  0.74847105
   0.75128810  0.49404697  0.74847105
   0.01216026  0.96240792  0.96234772
   0.51216024  0.96240792  0.96234772
   0.04795927  0.04645146  0.85087012
   0.54795928  0.04645146  0.85087012
   0.30891189  0.06177487  0.44855271
   0.80891189  0.06177487  0.44855271
   0.16016963  0.82154368  0.09628591
   0.66016962  0.82154368  0.09628591
   0.26307267  0.97737308  0.36231419
   0.76307267  0.97737308  0.36231419
   0.13888356  0.69119199  0.19521351
   0.63888353  0.69119199  0.19521351
   0.25128807  0.99404700  0.24847103
   0.75128810  0.99404700  0.24847103
   0.01216026  0.46240792  0.46234772
   0.51216024  0.46240792  0.46234772
   0.04795927  0.54645145  0.35087020
   0.54795928  0.54645145  0.35087020
   0.16245062  0.16865064  0.50101353
   0.66245065  0.16865064  0.50101353
   0.16245062  0.66865067  0.00101353
   0.66245065  0.66865067  0.00101353
   0.41335893  0.83096768  0.50110629
   0.91335893  0.83096768  0.50110629
   0.41335893  0.33096774  0.00110627
   0.91335893  0.33096774  0.00110627
   0.14547905  0.24606203  0.34577719
   0.64547902  0.24606203  0.34577719
   0.14547905  0.74606200  0.84577719
   0.64547902  0.74606200  0.84577719
   0.39786023  0.75212384  0.44972066
   0.89786026  0.75212384  0.44972066
   0.39786023  0.25212387  0.94972063
   0.89786026  0.25212387  0.94972063
BiTiFeO                                 
           1
    10.983711   -0.000690    0.005291
    -0.003554    5.477677   -0.000505
     0.218195    0.021194   41.212577
   Bi   Ti   O    Fe
  40  24 120   8
Direct configuration=     3
   0.12437431  0.24909587  0.10356874
   0.62437430  0.24909587  0.10356874
   0.11785152  0.27417103  0.22034593
   0.61785154  0.27417103  0.22034593
   0.12437431  0.74909587  0.60356873
   0.62437430  0.74909587  0.60356873
   0.11785152  0.77417106  0.72034591
   0.61785154  0.77417106  0.72034591
   0.37527371  0.75434660  0.89351965
   0.87527371  0.75434660  0.89351965
   0.35886453  0.72931397  0.78176986
   0.85886450  0.72931397  0.78176986
   0.37527371  0.25434660  0.39351970
   0.87527371  0.25434660  0.39351970
   0.35886453  0.22931397  0.28176983
   0.85886450  0.22931397  0.28176983
   0.37454207  0.75147288  0.10369082
   0.87454207  0.75147288  0.10369082
   0.37286142  0.73096371  0.22025778
   0.87286145  0.73096371  0.22025778
   0.37454207  0.25147291  0.60369084
   0.87454207  0.25147291  0.60369084
   0.37286142  0.23096372  0.72025781
   0.87286145  0.23096372  0.72025781
   0.12387155  0.24463110  0.89356744
   0.62387156  0.24463110  0.89356744
   0.11610553  0.28125252  0.78146533
   0.61610555  0.28125252  0.78146533
   0.12387155  0.74463114  0.39356747
   0.62387156  0.74463114  0.39356747
   0.11610553  0.78125249  0.28146536
   0.61610555  0.78125249  0.28146536
   0.12450576  0.24196046  0.99722751
   0.62450579  0.24196046  0.99722751
   0.12450576  0.74196047  0.49722751
   0.62450579  0.74196047  0.49722751
   0.37715311  0.75529086  0.99728889
   0.87715311  0.75529086  0.99728889
   0.37715311  0.25529086  0.49728883
   0.87715311  0.25529086  0.49728883
   0.39613879  0.75182728  0.34760139
   0.89613876  0.75182728  0.34760139
   0.39613879  0.25182728  0.84760139
   0.89613876  0.25182728  0.84760139
   0.39607582  0.74987522  0.65231214
   0.89607582  0.74987522  0.65231214
   0.39607582  0.24987525  0.15231213
   0.89607582  0.24987525  0.15231213
   0.14660786  0.24884431  0.54924095
   0.64660785  0.24884431  0.54924095
   0.14575783  0.24929469  0.65239036
   0.64575785  0.24929469  0.65239036
   0.14575783  0.74929467  0.15239034
   0.64575785  0.74929467  0.15239034
   0.14660786  0.74884428  0.04924095
   0.64660785  0.74884428  0.04924095
   0.15038568  0.24493780  0.45045198
   0.65038568  0.24493780  0.45045198
   0.15038568  0.74493778  0.95045198
   0.65038568  0.74493778  0.95045198
   0.39610898  0.75161138  0.54892556
   0.89610895  0.75161138  0.54892556
   0.39610898  0.25161138  0.04892555
   0.89610895  0.25161138  0.04892555
   0.29549539  0.54032415  0.05562343
   0.79549542  0.54032415  0.05562343
   0.15888158  0.31465586  0.40526580
   0.65888157  0.31465586  0.40526580
   0.26122410  0.47274524  0.13711089
   0.76122407  0.47274524  0.13711089
   0.15384285  0.18324743  0.30227946
   0.65384283  0.18324743  0.30227946
   0.25079737  0.49711320  0.25077262
   0.75079740  0.49711320  0.25077262
   0.01060330  0.96756657  0.03962871
   0.51060328  0.96756657  0.03962871
   0.05090564  0.05394271  0.14884900
   0.55090562  0.05394271  0.14884900
   0.29549539  0.04032415  0.55562340
   0.79549542  0.04032415  0.55562340
   0.15888158  0.81465589  0.90526580
   0.65888157  0.81465589  0.90526580
   0.26122410  0.97274530  0.63711087
   0.76122407  0.97274530  0.63711087
   0.15384285  0.68324739  0.80227943
   0.65384283  0.68324739  0.80227943
   0.25079737  0.99711320  0.75077268
   0.75079740  0.99711320  0.75077268
   0.01060330  0.46756663  0.53962871
   0.51060328  0.46756663  0.53962871
   0.05090564  0.55394274  0.64884900
   0.55090562  0.55394274  0.64884900
   0.05882896  0.43971873  0.94840327
   0.55882897  0.43971873  0.94840327
   0.41052112  0.67760733  0.59622509
   0.91052112  0.67760733  0.59622509
   0.01303303  0.52540145  0.86211051
   0.51303303  0.52540145  0.86211051
   0.39436016  0.80687523  0.69522200
   0.89436016  0.80687523  0.69522200
   0.99985041  0.50452438  0.74900807
   0.49985041  0.50452438  0.74900807
   0.26159765  0.03393034  0.96254786
   0.76159765  0.03393034  0.96254786
   0.29630453  0.95444777  0.85139052
   0.79630453  0.95444777  0.85139052
   0.05882896  0.93971876  0.44840321
   0.55882897  0.93971876  0.44840321
   0.41052112  0.17760736  0.09622510
   0.91052112  0.17760736  0.09622510
   0.01303303  0.02540146  0.36211051
   0.51303303  0.02540146  0.36211051
   0.39436016  0.30687520  0.19522200
   0.89436016  0.30687520  0.19522200
   0.99985041  0.00452441  0.24900809
   0.49985041  0.00452441  0.24900809
   0.26159765  0.53393039  0.46254780
   0.76159765  0.53393039  0.46254780
   0.29630453  0.45444780  0.35139055
   0.79630453  0.45444780  0.35139055
   0.04547708  0.46066515  0.05570346
   0.54547710  0.46066515  0.05570346
   0.41214488  0.68448601  0.40385631
   0.91214491  0.68448601  0.40385631
   0.01129288  0.52639459  0.13677829
   0.51129285  0.52639459  0.13677829
   0.39572334  0.80987217  0.30406891
   0.89572334  0.80987217  0.30406891
   0.00001456  0.50716947  0.25103220
   0.50001456  0.50716947  0.25103220
   0.26006920  0.03272592  0.03977274
   0.76006917  0.03272592  0.03977274
   0.30097604  0.94510362  0.14907393
   0.80097604  0.94510362  0.14907393
   0.04547708  0.96066515  0.55570351
   0.54547710  0.96066515  0.55570351
   0.41214488  0.18448604  0.90385631
   0.91214491  0.18448604  0.90385631
   0.01129288  0.02639458  0.63677824
   0.51129285  0.02639458  0.63677824
   0.39572334  0.30987217  0.80406885
   0.89572334  0.30987217  0.80406885
   0.00001456  0.00716950  0.75103220
   0.50001456  0.00716950  0.75103220
   0.26006920  0.53272595  0.53977268
   0.76006917  0.53272595  0.53977268
   0.30097604  0.44510362  0.64907395
   0.80097604  0.44510362  0.64907395
   0.30892671  0.56177344  0.94855588
   0.80892671  0.56177344  0.94855588
   0.16016087  0.32153829  0.59628519
   0.66016085  0.32153829  0.59628519
   0.26306293  0.47740357  0.86231467
   0.76306293  0.47740357  0.86231467
   0.13887659  0.19122657  0.69519544
   0.63887656  0.19122657  0.69519544
   0.25127001  0.49406189  0.74847076
   0.75127004  0.49406189  0.74847076
   0.01215418  0.96241068  0.96234899
   0.51215417  0.96241068  0.96234899
   0.04795592  0.04640825  0.85087653
   0.54795592  0.04640825  0.85087653
   0.30892671  0.06177340  0.44855594
   0.80892671  0.06177340  0.44855594
   0.16016087  0.82153832  0.09628523
   0.66016085  0.82153832  0.09628523
   0.26306293  0.97740354  0.36231467
   0.76306293  0.97740354  0.36231467
   0.13887659  0.69122657  0.19519543
   0.63887656  0.69122657  0.19519543
   0.25127001  0.99406192  0.24847074
   0.75127004  0.99406192  0.24847074
   0.01215418  0.46241068  0.46234899
   0.51215417  0.46241068  0.46234899
   0.04795592  0.54640824  0.35087662
   0.54795592  0.54640824  0.35087662
   0.16243857  0.16865993  0.50101649
   0.66243860  0.16865993  0.50101649
   0.16243857  0.66865996  0.00101649
   0.66243860  0.66865996  0.00101649
   0.41336829  0.83096286  0.50111025
   0.91336829  0.83096286  0.50111025
   0.41336829  0.33096292  0.00111023
   0.91336829  0.33096292  0.00111023
   0.14548735  0.24602826  0.34576180
   0.64548732  0.24602826  0.34576180
   0.14548735  0.74602823  0.84576180
   0.64548732  0.74602823  0.84576180
   0.39787590  0.75211897  0.44971646
   0.89787593  0.75211897  0.44971646
   0.39787590  0.25211900  0.94971643
   0.89787593  0.25211900  0.94971643
BiTiFeO                                 
           1
    10.983400   -0.000717    0.005376
    -0.003568    5.477456   -0.000485
     0.218514    0.021349   41.207757
   Bi   Ti   O    Fe
  40  24 120   8
Direct configuration=     4
   0.12436099  0.24911554  0.10356233
   0.62436098  0.24911554  0.10356233
   0.11786009  0.27411080  0.22034451
   0.61786011  0.27411080  0.22034451
   0.12436099  0.74911554  0.60356233
   0.62436098  0.74911554  0.60356233
   0.11786009  0.77411083  0.72034449
   0.61786011  0.77411083  0.72034449
   0.37524713  0.75440544  0.89351445
   0.87524713  0.75440544  0.89351445
   0.35882245  0.72938177  0.78175121
   0.85882242  0.72938177  0.78175121
   0.37524713  0.25440544  0.39351451
   0.87524713  0.25440544  0.39351451
   0.35882245  0.22938177  0.28175118
   0.85882242  0.22938177  0.28175118
   0.37453993  0.75144494  0.10368526
   0.87453993  0.75144494  0.10368526
   0.37287047  0.73100424  0.22026012
   0.87287050  0.73100424  0.22026012
   0.37453993  0.25144497  0.60368528
   0.87453993  0.25144497  0.60368528
   0.37287047  0.23100425  0.72026015
   0.87287050  0.23100425  0.72026015
   0.12382669  0.24458821  0.89355764
   0.62382669  0.24458821  0.89355764
   0.11605597  0.28120817  0.78144901
   0.61605599  0.28120817  0.78144901
   0.12382669  0.74458826  0.39355767
   0.62382669  0.74458826  0.39355767
   0.11605597  0.78120814  0.28144904
   0.61605599  0.78120814  0.28144904
   0.12450765  0.24195462  0.99722720
   0.62450768  0.24195462  0.99722720
   0.12450765  0.74195463  0.49722720
   0.62450768  0.74195463  0.49722720
   0.37714936  0.75531411  0.99728819
   0.87714936  0.75531411  0.99728819
   0.37714936  0.25531411  0.49728813
   0.87714936  0.25531411  0.49728813
   0.39616062  0.75184612  0.34760442
   0.89616059  0.75184612  0.34760442
   0.39616062  0.25184612  0.84760442
   0.89616059  0.25184612  0.84760442
   0.39607953  0.74988240  0.65228924
   0.89607953  0.74988240  0.65228924
   0.39607953  0.24988243  0.15228922
   0.89607953  0.24988243  0.15228922
   0.14663249  0.24888077  0.54924676
   0.64663248  0.24888077  0.54924676
   0.14576287  0.24932523  0.65236246
   0.64576289  0.24932523  0.65236246
   0.14576287  0.74932521  0.15236244
   0.64576289  0.74932521  0.15236244
   0.14663249  0.74888074  0.04924676
   0.64663248  0.74888074  0.04924676
   0.15043308  0.24494878  0.45045702
   0.65043308  0.24494878  0.45045702
   0.15043308  0.74494876  0.95045702
   0.65043308  0.74494876  0.95045702
   0.39614722  0.75159804  0.54893116
   0.89614719  0.75159804  0.54893116
   0.39614722  0.25159804  0.04893115
   0.89614719  0.25159804  0.04893115
   0.29545354  0.54028400  0.05562867
   0.79545357  0.54028400  0.05562867
   0.15887410  0.31463275  0.40528933
   0.65887409  0.31463275  0.40528933
   0.26120737  0.47266942  0.13711278
   0.76120734  0.47266942  0.13711278
   0.15386607  0.18326658  0.30228278
   0.65386606  0.18326658  0.30228278
   0.25074537  0.49710592  0.25075645
   0.75074540  0.49710592  0.25075645
   0.01061604  0.96754753  0.03962816
   0.51061601  0.96754753  0.03962816
   0.05090002  0.05398065  0.14883782
   0.55090000  0.05398065  0.14883782
   0.29545354  0.04028400  0.55562864
   0.79545357  0.04028400  0.55562864
   0.15887410  0.81463278  0.90528933
   0.65887409  0.81463278  0.90528933
   0.26120737  0.97266948  0.63711275
   0.76120734  0.97266948  0.63711275
   0.15386607  0.68326653  0.80228275
   0.65386606  0.68326653  0.80228275
   0.25074537  0.99710592  0.75075651
   0.75074540  0.99710592  0.75075651
   0.01061604  0.46754759  0.53962816
   0.51061601  0.46754759  0.53962816
   0.05090002  0.55398068  0.64883782
   0.55090000  0.55398068  0.64883782
   0.05890177  0.43958423  0.94841408
   0.55890178  0.43958423  0.94841408
   0.41055302  0.67758930  0.59621541
   0.91055302  0.67758930  0.59621541
   0.01303824  0.52543979  0.86210509
   0.51303825  0.52543979  0.86210509
   0.39437232  0.80692775  0.69524432
   0.89437232  0.80692775  0.69524432
   0.99981631  0.50451426  0.74901223
   0.49981631  0.50451426  0.74901223
   0.26164387  0.03396755  0.96255424
   0.76164387  0.03396755  0.96255424
   0.29625772  0.95449039  0.85141480
   0.79625772  0.95449039  0.85141480
   0.05890177  0.93958426  0.44841403
   0.55890178  0.93958426  0.44841403
   0.41055302  0.17758933  0.09621542
   0.91055302  0.17758933  0.09621542
   0.01303824  0.02543980  0.36210509
   0.51303825  0.02543980  0.36210509
   0.39437232  0.30692772  0.19524432
   0.89437232  0.30692772  0.19524432
   0.99981631  0.00451430  0.24901225
   0.49981631  0.00451430  0.24901225
   0.26164387  0.53396760  0.46255418
   0.76164387  0.53396760  0.46255418
   0.29625772  0.45449042  0.35141483
   0.79625772  0.45449042  0.35141483
   0.04545333  0.46067483  0.05571097
   0.54545335  0.46067483  0.05571097
   0.41217190  0.68452013  0.40387103
   0.91217193  0.68452013  0.40387103
   0.01126733  0.52650284  0.13677828
   0.51126730  0.52650284  0.13677828
   0.39573209  0.80988069  0.30405568
   0.89573209  0.80988069  0.30405568
  -0.00004214  0.50719519  0.25101212
   0.49995786  0.50719519  0.25101212
   0.26009731  0.03270816  0.03977174
   0.76009728  0.03270816  0.03977174
   0.30099508  0.94502304  0.14906720
   0.80099508  0.94502304  0.14906720
   0.04545333  0.96067483  0.55571102
   0.54545335  0.96067483  0.55571102
   0.41217190  0.18452016  0.90387103
   0.91217193  0.18452016  0.90387103
   0.01126733  0.02650282  0.63677823
   0.51126730  0.02650282  0.63677823
   0.39573209  0.30988069  0.80405562
   0.89573209  0.30988069  0.80405562
  -0.00004214  0.00719523  0.75101212
   0.49995786  0.00719523  0.75101212
   0.26009731  0.53270819  0.53977168
   0.76009728  0.53270819  0.53977168
   0.30099508  0.44502304  0.64906722
   0.80099508  0.44502304  0.64906722
   0.30896930  0.56179589  0.94856579
   0.80896930  0.56179589  0.94856579
   0.16014811  0.32155759  0.59627636
   0.66014810  0.32155759  0.59627636
   0.26307265  0.47744113  0.86231013
   0.76307265  0.47744113  0.86231013
   0.13883832  0.19119916  0.69521659
   0.63883829  0.19119916  0.69521659
   0.25122548  0.49409905  0.74847194
   0.75122550  0.49409905  0.74847194
   0.01216645  0.96236631  0.96235501
   0.51216644  0.96236631  0.96235501
   0.04791698  0.04630289  0.85089448
   0.54791699  0.04630289  0.85089448
   0.30896930  0.06179584  0.44856584
   0.80896930  0.06179584  0.44856584
   0.16014811  0.82155762  0.09627640
   0.66014810  0.82155762  0.09627640
   0.26307265  0.97744110  0.36231013
   0.76307265  0.97744110  0.36231013
   0.13883832  0.69119916  0.19521658
   0.63883829  0.69119916  0.19521658
   0.25122548  0.99409908  0.24847192
   0.75122550  0.99409908  0.24847192
   0.01216645  0.46236631  0.46235501
   0.51216644  0.46236631  0.46235501
   0.04791698  0.54630288  0.35089457
   0.54791699  0.54630288  0.35089457
   0.16241601  0.16867569  0.50102447
   0.66241604  0.16867569  0.50102447
   0.16241601  0.66867572  0.00102447
   0.66241604  0.66867572  0.00102447
   0.41341687  0.83097133  0.50112792
   0.91341687  0.83097133  0.50112792
   0.41341687  0.33097139  0.00112790
   0.91341687  0.33097139  0.00112790
   0.14551513  0.24596411  0.34575012
   0.64551510  0.24596411  0.34575012
   0.14551513  0.74596408  0.84575012
   0.64551510  0.74596408  0.84575012