BiTiFeO                                 
           1
    10.981402   -0.000667    0.003602
    -0.004142    5.476997   -0.000784
     0.175968   -0.013139   41.143610
   Bi   Ti   O    Fe
  40  24 120   8
Direct configuration=     1
   0.12211193  0.24698269  0.10344244
   0.62211192  0.24698269  0.10344244
   0.11681434  0.27429754  0.21987860
   0.61681431  0.27429754  0.21987860
   0.12211193  0.74698269  0.60344243
   0.62211192  0.74698269  0.60344243
   0.11681434  0.77429754  0.71987855
   0.61681431  0.77429754  0.71987855
   0.37457794  0.75178212  0.89371651
   0.87457794  0.75178212  0.89371651
   0.35911113  0.73040748  0.78142238
   0.85911113  0.73040748  0.78142238
   0.37457794  0.25178212  0.39371657
   0.87457794  0.25178212  0.39371657
   0.35911113  0.23040751  0.28142232
   0.85911113  0.23040751  0.28142232
   0.37505013  0.75500071  0.10362651
   0.87505013  0.75500071  0.10362651
   0.37275267  0.73006839  0.21990174
   0.87275267  0.73006839  0.21990174
   0.37505013  0.25500074  0.60362655
   0.87505013  0.25500074  0.60362655
   0.37275267  0.23006836  0.71990174
   0.87275267  0.23006836  0.71990174
   0.12628803  0.24587491  0.89367139
   0.62628806  0.24587491  0.89367139
   0.11728379  0.28172970  0.78105044
   0.61728382  0.28172970  0.78105044
   0.12628803  0.74587494  0.39367145
   0.62628806  0.74587494  0.39367145
   0.11728379  0.78172970  0.28105047
   0.61728382  0.78172970  0.28105047
   0.12463044  0.24067582  0.00146601
   0.62463045  0.24067582  0.00146601
   0.12463044  0.74067581  0.50146604
   0.62463045  0.74067581  0.50146604
   0.37710759  0.75629669  0.00158930
   0.87710762  0.75629669  0.00158930
   0.37710759  0.25629669  0.50158924
   0.87710762  0.25629669  0.50158924
   0.39646182  0.75065506  0.34725148
   0.89646184  0.75065506  0.34725148
   0.39646182  0.25065508  0.84725148
   0.89646184  0.25065508  0.84725148
   0.39556688  0.75093770  0.65189529
   0.89556688  0.75093770  0.65189529
   0.39556688  0.25093773  0.15189529
   0.89556688  0.25093773  0.15189529
   0.39855099  0.75332808  0.45113456
   0.89855099  0.75332808  0.45113456
   0.39855099  0.25332808  0.95113450
   0.89855099  0.25332808  0.95113450
   0.14817983  0.24595635  0.54937673
   0.64817983  0.24595635  0.54937673
   0.14592625  0.24874280  0.65239960
   0.64592624  0.24874280  0.65239960
   0.14592625  0.74874282  0.15239961
   0.64592624  0.74874282  0.15239961
   0.14817983  0.74595630  0.04937670
   0.64817983  0.74595630  0.04937670
   0.14895152  0.24674398  0.45088184
   0.64895153  0.24674398  0.45088184
   0.14895152  0.74674398  0.95088184
   0.64895153  0.74674398  0.95088184
   0.30378065  0.55677211  0.05357002
   0.80378067  0.55677211  0.05357002
   0.15989688  0.31925246  0.40545326
   0.65989685  0.31925246  0.40545326
   0.26118699  0.47412208  0.13718057
   0.76118696  0.47412208  0.13718057
   0.15391566  0.18347211  0.30239421
   0.65391564  0.18347211  0.30239421
   0.25085670  0.49705335  0.25058863
   0.75085670  0.49705335  0.25058863
   0.01034575  0.96196240  0.03888512
   0.51034576  0.96196240  0.03888512
   0.05047420  0.05251777  0.14901903
   0.55047423  0.05251777  0.14901903
   0.30378065  0.05677210  0.55357003
   0.80378067  0.05677210  0.55357003
   0.15989688  0.81925243  0.90545326
   0.65989685  0.81925243  0.90545326
   0.26118699  0.97412211  0.63718057
   0.76118696  0.97412211  0.63718057
   0.15391566  0.68347210  0.80239421
   0.65391564  0.68347210  0.80239421
   0.25085670  0.99705339  0.75058866
   0.75085670  0.99705339  0.75058866
   0.01034575  0.46196243  0.53888512
   0.51034576  0.46196243  0.53888512
   0.05047420  0.55251783  0.64901906
   0.55047423  0.55251783  0.64901906
   0.05374113  0.44770545  0.94667494
   0.55374110  0.44770545  0.94667494
   0.41250604  0.67894268  0.59647512
   0.91250604  0.67894268  0.59647512
   0.01287753  0.52288050  0.86219066
   0.51287752  0.52288050  0.86219066
   0.39561450  0.80886519  0.69505560
   0.89561450  0.80886519  0.69505560
   0.99981517  0.50459290  0.74887377
   0.49981517  0.50459290  0.74887377
   0.26092589  0.03543437  0.96242857
   0.76092589  0.03543437  0.96242857
   0.29543704  0.95551848  0.85166281
   0.79543704  0.95551848  0.85166281
   0.05374113  0.94770551  0.44667491
   0.55374110  0.94770551  0.44667491
   0.41250604  0.17894271  0.09647512
   0.91250604  0.17894271  0.09647512
   0.01287753  0.02288050  0.36219069
   0.51287752  0.02288050  0.36219069
   0.39561450  0.30886516  0.19505562
   0.89561450  0.30886516  0.19505562
   0.99981517  0.00459290  0.24887380
   0.49981517  0.00459290  0.24887380
   0.26092589  0.53543437  0.46242854
   0.76092589  0.53543437  0.46242854
   0.29543704  0.45551857  0.35166287
   0.79543704  0.45551857  0.35166287
   0.05332286  0.44754013  0.05376958
   0.55332285  0.44754013  0.05376958
   0.40911919  0.68309093  0.40484893
   0.90911919  0.68309093  0.40484893
   0.01167825  0.52681172  0.13666290
   0.51167822  0.52681172  0.13666290
   0.39463508  0.80752707  0.30384576
   0.89463508  0.80752707  0.30384576
   0.00004426  0.50709718  0.25089407
   0.50004429  0.50709718  0.25089407
   0.25908774  0.03472592  0.03877780
   0.75908774  0.03472592  0.03877780
   0.30013117  0.94656110  0.14905612
   0.80013120  0.94656110  0.14905612
   0.05332286  0.94754010  0.55376965
   0.55332285  0.94754010  0.55376965
   0.40911919  0.18309097  0.90484893
   0.90911919  0.18309097  0.90484893
   0.01167825  0.02681168  0.63666290
   0.51167822  0.02681168  0.63666290
   0.39463508  0.30752709  0.80384576
   0.89463508  0.30752709  0.80384576
   0.00004426  0.00709716  0.75089407
   0.50004429  0.00709716  0.75089407
   0.25908774  0.53472590  0.53877777
   0.75908774  0.53472590  0.53877777
   0.30013117  0.44656110  0.64905614
   0.80013120  0.44656110  0.64905614
   0.30354983  0.55151904  0.94677514
   0.80354983  0.55151904  0.94677514
   0.15943131  0.31794047  0.59611148
   0.65943134  0.31794047  0.59611148
   0.26329014  0.47680992  0.86252397
   0.76329017  0.47680992  0.86252397
   0.13908161  0.19042632  0.69534320
   0.63908160  0.19042632  0.69534320
   0.25131330  0.49417895  0.74828333
   0.75131333  0.49417895  0.74828333
   0.01111802  0.96428645  0.96240312
   0.51111799  0.96428645  0.96240312
   0.04663610  0.04466211  0.85141772
   0.54663610  0.04466211  0.85141772
   0.30354983  0.05151901  0.44677520
   0.80354983  0.05151901  0.44677520
   0.15943131  0.81794047  0.09611149
   0.65943134  0.81794047  0.09611149
   0.26329014  0.97680986  0.36252394
   0.76329017  0.97680986  0.36252394
   0.13908161  0.69042635  0.19534315
   0.63908160  0.69042635  0.19534315
   0.25131330  0.99417895  0.24828328
   0.75131333  0.99417895  0.24828328
   0.01111802  0.46428648  0.46240315
   0.51111799  0.46428648  0.46240315
   0.04663610  0.54466212  0.35141781
   0.54663610  0.54466212  0.35141781
   0.16269399  0.16697066  0.50044376
   0.66269398  0.16697066  0.50044376
   0.16269399  0.66697073  0.00044382
   0.66269398  0.66697073  0.00044382
   0.41362300  0.83252072  0.50016844
   0.91362298  0.83252072  0.50016844
   0.41362300  0.33252081  0.00016847
   0.91362298  0.33252081  0.00016847
   0.14492229  0.24613695  0.34587738
   0.64492226  0.24613695  0.34587738
   0.14492229  0.74613696  0.84587741
   0.64492226  0.74613696  0.84587741
   0.39558235  0.75262225  0.54964000
   0.89558232  0.75262225  0.54964000
   0.39558235  0.25262225  0.04963997
   0.89558232  0.25262225  0.04963997
BiTiFeO                                 
           1
    10.980986   -0.000669    0.003559
    -0.004142    5.476834   -0.000774
     0.175802   -0.013061   41.141318
   Bi   Ti   O    Fe
  40  24 120   8
Direct configuration=     2
   0.12211501  0.24698763  0.10344237
   0.62211500  0.24698763  0.10344237
   0.11678508  0.27430287  0.21987510
   0.61678506  0.27430287  0.21987510
   0.12211501  0.74698763  0.60344236
   0.62211500  0.74698763  0.60344236
   0.11678508  0.77430287  0.71987505
   0.61678506  0.77430287  0.71987505
   0.37457827  0.75179951  0.89371432
   0.87457827  0.75179951  0.89371432
   0.35908694  0.73041689  0.78141642
   0.85908694  0.73041689  0.78141642
   0.37457827  0.25179951  0.39371438
   0.87457827  0.25179951  0.39371438
   0.35908694  0.23041692  0.28141636
   0.85908694  0.23041692  0.28141636
   0.37505557  0.75501179  0.10362687
   0.87505557  0.75501179  0.10362687
   0.37273053  0.73008344  0.21989979
   0.87273053  0.73008344  0.21989979
   0.37505557  0.25501182  0.60362691
   0.87505557  0.25501182  0.60362691
   0.37273053  0.23008341  0.71989979
   0.87273053  0.23008341  0.71989979
   0.12628663  0.24583987  0.89366854
   0.62628666  0.24583987  0.89366854
   0.11726425  0.28172813  0.78104401
   0.61726428  0.28172813  0.78104401
   0.12628663  0.74583990  0.39366860
   0.62628666  0.74583990  0.39366860
   0.11726425  0.78172813  0.28104404
   0.61726428  0.78172813  0.28104404
   0.12464673  0.24066340  0.00146578
   0.62464674  0.24066340  0.00146578
   0.12464673  0.74066338  0.50146581
   0.62464674  0.74066338  0.50146581
   0.37713072  0.75630252  0.00158918
   0.87713075  0.75630252  0.00158918
   0.37713072  0.25630252  0.50158912
   0.87713075  0.25630252  0.50158912
   0.39644951  0.75066061  0.34724520
   0.89644954  0.75066061  0.34724520
   0.39644951  0.25066064  0.84724520
   0.89644954  0.25066064  0.84724520
   0.39556276  0.75094521  0.65189999
   0.89556276  0.75094521  0.65189999
   0.39556276  0.25094524  0.15189999
   0.89556276  0.25094524  0.15189999
   0.39856516  0.75333038  0.45113350
   0.89856516  0.75333038  0.45113350
   0.39856516  0.25333038  0.95113345
   0.89856516  0.25333038  0.95113345
   0.14818519  0.24595614  0.54937871
   0.64818519  0.24595614  0.54937871
   0.14591839  0.24873751  0.65240449
   0.64591837  0.24873751  0.65240449
   0.14591839  0.74873753  0.15240450
   0.64591837  0.74873753  0.15240450
   0.14818519  0.74595610  0.04937869
   0.64818519  0.74595610  0.04937869
   0.14896731  0.24674258  0.45087662
   0.64896732  0.24674258  0.45087662
   0.14896731  0.74674258  0.95087662
   0.64896732  0.74674258  0.95087662
   0.30380864  0.55676348  0.05357183
   0.80380867  0.55676348  0.05357183
   0.15987777  0.31923350  0.40546729
   0.65987774  0.31923350  0.40546729
   0.26121205  0.47412277  0.13717819
   0.76121202  0.47412277  0.13717819
   0.15394443  0.18346969  0.30239418
   0.65394442  0.18346969  0.30239418
   0.25081739  0.49705321  0.25058469
   0.75081739  0.49705321  0.25058469
   0.01035449  0.96195742  0.03888694
   0.51035450  0.96195742  0.03888694
   0.05043625  0.05249245  0.14901526
   0.55043627  0.05249245  0.14901526
   0.30380864  0.05676346  0.55357184
   0.80380867  0.05676346  0.55357184
   0.15987777  0.81923347  0.90546729
   0.65987774  0.81923347  0.90546729
   0.26121205  0.97412280  0.63717819
   0.76121202  0.97412280  0.63717819
   0.15394443  0.68346967  0.80239418
   0.65394442  0.68346967  0.80239418
   0.25081739  0.99705324  0.75058472
   0.75081739  0.99705324  0.75058472
   0.01035449  0.46195745  0.53888694
   0.51035450  0.46195745  0.53888694
   0.05043625  0.55249251  0.64901529
   0.55043627  0.55249251  0.64901529
   0.05375476  0.44767996  0.94667875
   0.55375473  0.44767996  0.94667875
   0.41252828  0.67893348  0.59647623
   0.91252828  0.67893348  0.59647623
   0.01284027  0.52285972  0.86218998
   0.51284027  0.52285972  0.86218998
   0.39563383  0.80887926  0.69504604
   0.89563383  0.80887926  0.69504604
   0.99979142  0.50461232  0.74887183
   0.49979142  0.50461232  0.74887183
   0.26097384  0.03544474  0.96243209
   0.76097384  0.03544474  0.96243209
   0.29539501  0.95561251  0.85166917
   0.79539501  0.95561251  0.85166917
   0.05375476  0.94768002  0.44667872
   0.55375473  0.94768002  0.44667872
   0.41252828  0.17893351  0.09647623
   0.91252828  0.17893351  0.09647623
   0.01284027  0.02285973  0.36219001
   0.51284027  0.02285973  0.36219001
   0.39563383  0.30887923  0.19504606
   0.89563383  0.30887923  0.19504606
   0.99979142  0.00461232  0.24887186
   0.49979142  0.00461232  0.24887186
   0.26097384  0.53544473  0.46243206
   0.76097384  0.53544473  0.46243206
   0.29539501  0.45561260  0.35166923
   0.79539501  0.45561260  0.35166923
   0.05331082  0.44755979  0.05377082
   0.55331081  0.44755979  0.05377082
   0.40914778  0.68309813  0.40485866
   0.90914778  0.68309813  0.40485866
   0.01165858  0.52681984  0.13665839
   0.51165855  0.52681984  0.13665839
   0.39464668  0.80751706  0.30385151
   0.89464668  0.80751706  0.30385151
   0.00002609  0.50710814  0.25089141
   0.50002611  0.50710814  0.25089141
   0.25910119  0.03472220  0.03877946
   0.75910119  0.03472220  0.03877946
   0.30016319  0.94658727  0.14905492
   0.80016322  0.94658727  0.14905492
   0.05331082  0.94755976  0.55377088
   0.55331081  0.94755976  0.55377088
   0.40914778  0.18309817  0.90485866
   0.90914778  0.18309817  0.90485866
   0.01165858  0.02681980  0.63665839
   0.51165855  0.02681980  0.63665839
   0.39464668  0.30751709  0.80385151
   0.89464668  0.30751709  0.80385151
   0.00002609  0.00710812  0.75089141
   0.50002611  0.00710812  0.75089141
   0.25910119  0.53472219  0.53877943
   0.75910119  0.53472219  0.53877943
   0.30016319  0.44658727  0.64905493
   0.80016322  0.44658727  0.64905493
   0.30361234  0.55152501  0.94677826
   0.80361234  0.55152501  0.94677826
   0.15942125  0.31794382  0.59611056
   0.65942128  0.31794382  0.59611056
   0.26333870  0.47680848  0.86252500
   0.76333873  0.47680848  0.86252500
   0.13906666  0.19042355  0.69533323
   0.63906665  0.19042355  0.69533323
   0.25126582  0.49417780  0.74828116
   0.75126585  0.49417780  0.74828116
   0.01112154  0.96426610  0.96240697
   0.51112152  0.96426610  0.96240697
   0.04658962  0.04458326  0.85142278
   0.54658962  0.04458326  0.85142278
   0.30361234  0.05152499  0.44677832
   0.80361234  0.05152499  0.44677832
   0.15942125  0.81794382  0.09611057
   0.65942128  0.81794382  0.09611057
   0.26333870  0.97680842  0.36252497
   0.76333873  0.97680842  0.36252497
   0.13906666  0.69042358  0.19533318
   0.63906665  0.69042358  0.19533318
   0.25126582  0.99417780  0.24828111
   0.75126585  0.99417780  0.24828111
   0.01112154  0.46426613  0.46240700
   0.51112152  0.46426613  0.46240700
   0.04658962  0.54458327  0.35142287
   0.54658962  0.54458327  0.35142287
   0.16267379  0.16695524  0.50044756
   0.66267377  0.16695524  0.50044756
   0.16267379  0.66695532  0.00044762
   0.66267377  0.66695532  0.00044762
   0.41365660  0.83253098  0.50017023
   0.91365657  0.83253098  0.50017023
   0.41365660  0.33253107  0.00017026
   0.91365657  0.33253107  0.00017026
   0.14491283  0.24612777  0.34587608
   0.64491280  0.24612777  0.34587608
   0.14491283  0.74612778  0.84587611
   0.64491280  0.74612778  0.84587611
   0.39558989  0.75262230  0.54963949
   0.89558986  0.75262230  0.54963949
   0.39558989  0.25262230  0.04963947
   0.89558986  0.25262230  0.04963947
BiTiFeO                                 
           1
    10.979886   -0.000457    0.000555
    -0.004037    5.479485   -0.000082
     0.164536   -0.007873   41.115327
   Bi   Ti   O    Fe
  40  24 120   8
Direct configuration=     3
   0.12211312  0.24698505  0.10344292
   0.62211311  0.24698505  0.10344292
   0.11678426  0.27430711  0.21987634
   0.61678424  0.27430711  0.21987634
   0.12211312  0.74698505  0.60344291
   0.62211311  0.74698505  0.60344291
   0.11678426  0.77430711  0.71987629
   0.61678424  0.77430711  0.71987629
   0.37457717  0.75179804  0.89371415
   0.87457717  0.75179804  0.89371415
   0.35908647  0.73041200  0.78141617
   0.85908647  0.73041200  0.78141617
   0.37457717  0.25179804  0.39371421
   0.87457717  0.25179804  0.39371421
   0.35908647  0.23041203  0.28141611
   0.85908647  0.23041203  0.28141611
   0.37505340  0.75501523  0.10362749
   0.87505340  0.75501523  0.10362749
   0.37272977  0.73008093  0.21990083
   0.87272977  0.73008093  0.21990083
   0.37505340  0.25501526  0.60362753
   0.87505340  0.25501526  0.60362753
   0.37272977  0.23008090  0.71990083
   0.87272977  0.23008090  0.71990083
   0.12628680  0.24584076  0.89366857
   0.62628683  0.24584076  0.89366857
   0.11726571  0.28173358  0.78104369
   0.61726574  0.28173358  0.78104369
   0.12628680  0.74584079  0.39366863
   0.62628683  0.74584079  0.39366863
   0.11726571  0.78173358  0.28104372
   0.61726574  0.78173358  0.28104372
   0.12464559  0.24066529  0.00146560
   0.62464559  0.24066529  0.00146560
   0.12464559  0.74066528  0.50146563
   0.62464559  0.74066528  0.50146563
   0.37712917  0.75630090  0.00158902
   0.87712920  0.75630090  0.00158902
   0.37712917  0.25630090  0.50158896
   0.87712920  0.25630090  0.50158896
   0.39644841  0.75065801  0.34724649
   0.89644844  0.75065801  0.34724649
   0.39644841  0.25065804  0.84724649
   0.89644844  0.25065804  0.84724649
   0.39556253  0.75093948  0.65189942
   0.89556253  0.75093948  0.65189942
   0.39556253  0.25093951  0.15189942
   0.89556253  0.25093951  0.15189942
   0.39856253  0.75333281  0.45113332
   0.89856253  0.75333281  0.45113332
   0.39856253  0.25333281  0.95113326
   0.89856253  0.25333281  0.95113326
   0.14818379  0.24595460  0.54937824
   0.64818379  0.24595460  0.54937824
   0.14591902  0.24874062  0.65240376
   0.64591900  0.24874062  0.65240376
   0.14591902  0.74874064  0.15240377
   0.64591900  0.74874064  0.15240377
   0.14818379  0.74595456  0.04937822
   0.64818379  0.74595456  0.04937822
   0.14896513  0.24674118  0.45087612
   0.64896515  0.24674118  0.45087612
   0.14896513  0.74674118  0.95087612
   0.64896515  0.74674118  0.95087612
   0.30380815  0.55676278  0.05357199
   0.80380818  0.55676278  0.05357199
   0.15987904  0.31923592  0.40546710
   0.65987901  0.31923592  0.40546710
   0.26121259  0.47412485  0.13717826
   0.76121256  0.47412485  0.13717826
   0.15394440  0.18346626  0.30239360
   0.65394439  0.18346626  0.30239360
   0.25081963  0.49705325  0.25058495
   0.75081963  0.49705325  0.25058495
   0.01035575  0.96195678  0.03888685
   0.51035576  0.96195678  0.03888685
   0.05043711  0.05249104  0.14901569
   0.55043714  0.05249104  0.14901569
   0.30380815  0.05676277  0.55357200
   0.80380818  0.05676277  0.55357200
   0.15987904  0.81923589  0.90546710
   0.65987901  0.81923589  0.90546710
   0.26121259  0.97412488  0.63717826
   0.76121256  0.97412488  0.63717826
   0.15394440  0.68346624  0.80239360
   0.65394439  0.68346624  0.80239360
   0.25081963  0.99705328  0.75058498
   0.75081963  0.99705328  0.75058498
   0.01035575  0.46195681  0.53888685
   0.51035576  0.46195681  0.53888685
   0.05043711  0.55249110  0.64901572
   0.55043714  0.55249110  0.64901572
   0.05375303  0.44768425  0.94667859
   0.55375300  0.44768425  0.94667859
   0.41252806  0.67893188  0.59647640
   0.91252806  0.67893188  0.59647640
   0.01283942  0.52285635  0.86219002
   0.51283941  0.52285635  0.86219002
   0.39563369  0.80887919  0.69504569
   0.89563369  0.80887919  0.69504569
   0.99979334  0.50461239  0.74887165
   0.49979334  0.50461239  0.74887165
   0.26097359  0.03544533  0.96243194
   0.76097359  0.03544533  0.96243194
   0.29539932  0.95561499  0.85166833
   0.79539932  0.95561499  0.85166833
   0.05375303  0.94768431  0.44667856
   0.55375300  0.94768431  0.44667856
   0.41252806  0.17893191  0.09647640
   0.91252806  0.17893191  0.09647640
   0.01283942  0.02285636  0.36219005
   0.51283941  0.02285636  0.36219005
   0.39563369  0.30887916  0.19504571
   0.89563369  0.30887916  0.19504571
   0.99979334  0.00461240  0.24887168
   0.49979334  0.00461240  0.24887168
   0.26097359  0.53544533  0.46243191
   0.76097359  0.53544533  0.46243191
   0.29539932  0.45561508  0.35166839
   0.79539932  0.45561508  0.35166839
   0.05331274  0.44756421  0.05377080
   0.55331273  0.44756421  0.05377080
   0.40914676  0.68309643  0.40485840
   0.90914676  0.68309643  0.40485840
   0.01165945  0.52681589  0.13665852
   0.51165942  0.52681589  0.13665852
   0.39464657  0.80751843  0.30385162
   0.89464657  0.80751843  0.30385162
   0.00002879  0.50710674  0.25089167
   0.50002882  0.50710674  0.25089167
   0.25910079  0.03471834  0.03877945
   0.75910079  0.03471834  0.03877945
   0.30016360  0.94659072  0.14905502
   0.80016363  0.94659072  0.14905502
   0.05331274  0.94756418  0.55377086
   0.55331273  0.94756418  0.55377086
   0.40914676  0.18309648  0.90485840
   0.90914676  0.18309648  0.90485840
   0.01165945  0.02681584  0.63665852
   0.51165942  0.02681584  0.63665852
   0.39464657  0.30751846  0.80385162
   0.89464657  0.30751846  0.80385162
   0.00002879  0.00710672  0.75089167
   0.50002882  0.00710672  0.75089167
   0.25910079  0.53471833  0.53877941
   0.75910079  0.53471833  0.53877941
   0.30016360  0.44659072  0.64905503
   0.80016363  0.44659072  0.64905503
   0.30361071  0.55151957  0.94677810
   0.80361071  0.55151957  0.94677810
   0.15942180  0.31794544  0.59611063
   0.65942183  0.31794544  0.59611063
   0.26334002  0.47680502  0.86252504
   0.76334005  0.47680502  0.86252504
   0.13906795  0.19042201  0.69533317
   0.63906793  0.19042201  0.69533317
   0.25126821  0.49417650  0.74828126
   0.75126824  0.49417650  0.74828126
   0.01112135  0.96426836  0.96240686
   0.51112132  0.96426836  0.96240686
   0.04659013  0.04458963  0.85142225
   0.54659013  0.04458963  0.85142225
   0.30361071  0.05151954  0.44677816
   0.80361071  0.05151954  0.44677816
   0.15942180  0.81794544  0.09611064
   0.65942183  0.81794544  0.09611064
   0.26334002  0.97680496  0.36252501
   0.76334005  0.97680496  0.36252501
   0.13906795  0.69042204  0.19533313
   0.63906793  0.69042204  0.19533313
   0.25126821  0.99417650  0.24828122
   0.75126824  0.99417650  0.24828122
   0.01112135  0.46426839  0.46240689
   0.51112132  0.46426839  0.46240689
   0.04659013  0.54458964  0.35142234
   0.54659013  0.54458964  0.35142234
   0.16267480  0.16695388  0.50044759
   0.66267479  0.16695388  0.50044759
   0.16267480  0.66695396  0.00044765
   0.66267479  0.66695396  0.00044765
   0.41365562  0.83253224  0.50017022
   0.91365559  0.83253224  0.50017022
   0.41365562  0.33253233  0.00017024
   0.91365559  0.33253233  0.00017024
   0.14491227  0.24613151  0.34587706
   0.64491224  0.24613151  0.34587706
   0.14491227  0.74613153  0.84587709
   0.64491224  0.74613153  0.84587709
   0.39558833  0.75262395  0.54963901
   0.89558830  0.75262395  0.54963901
   0.39558833  0.25262395  0.04963898
   0.89558830  0.25262395  0.04963898
BiTiFeO                                 
           1
    10.979855   -0.000387   -0.001171
    -0.004001    5.481427    0.000339
     0.158074   -0.004725   41.090770
   Bi   Ti   O    Fe
  40  24 120   8
Direct configuration=     4
   0.12214065  0.24700564  0.10343287
   0.62214064  0.24700564  0.10343287
   0.11679303  0.27431538  0.21985712
   0.61679301  0.27431538  0.21985712
   0.12214065  0.74700564  0.60343286
   0.62214064  0.74700564  0.60343286
   0.11679303  0.77431538  0.71985708
   0.61679301  0.77431538  0.71985708
   0.37460597  0.75177778  0.89372710
   0.87460597  0.75177778  0.89372710
   0.35911559  0.73039844  0.78144058
   0.85911559  0.73039844  0.78144058
   0.37460597  0.25177778  0.39372716
   0.87460597  0.25177778  0.39372716
   0.35911559  0.23039847  0.28144052
   0.85911559  0.23039847  0.28144052
   0.37506516  0.75498339  0.10361635
   0.87506516  0.75498339  0.10361635
   0.37274092  0.73007266  0.21988281
   0.87274092  0.73007266  0.21988281
   0.37506516  0.25498342  0.60361639
   0.87506516  0.25498342  0.60361639
   0.37274092  0.23007263  0.71988281
   0.87274092  0.23007263  0.71988281
   0.12630249  0.24586699  0.89368123
   0.62630252  0.24586699  0.89368123
   0.11727514  0.28171911  0.78106859
   0.61727517  0.28171911  0.78106859
   0.12630249  0.74586702  0.39368129
   0.62630252  0.74586702  0.39368129
   0.11727514  0.78171911  0.28106862
   0.61727517  0.78171911  0.28106862
   0.12466291  0.24065484  0.00146405
   0.62466292  0.24065484  0.00146405
   0.12466291  0.74065483  0.50146407
   0.62466292  0.74065483  0.50146407
   0.37713505  0.75631221  0.00158774
   0.87713508  0.75631221  0.00158774
   0.37713505  0.25631221  0.50158768
   0.87713508  0.25631221  0.50158768
   0.39645226  0.75066813  0.34727408
   0.89645229  0.75066813  0.34727408
   0.39645226  0.25066816  0.84727408
   0.89645229  0.25066816  0.84727408
   0.39556784  0.75093465  0.65187664
   0.89556784  0.75093465  0.65187664
   0.39556784  0.25093468  0.15187664
   0.89556784  0.25093468  0.15187664
   0.39853826  0.75329067  0.45113832
   0.89853826  0.75329067  0.45113832
   0.39853826  0.25329067  0.95113826
   0.89853826  0.25329067  0.95113826
   0.14817430  0.24596740  0.54936353
   0.64817430  0.24596740  0.54936353
   0.14593089  0.24872986  0.65237753
   0.64593088  0.24872986  0.65237753
   0.14593089  0.74872988  0.15237754
   0.64593088  0.74872988  0.15237754
   0.14817430  0.74596736  0.04936351
   0.64817430  0.74596736  0.04936351
   0.14892830  0.24676085  0.45089178
   0.64892831  0.24676085  0.45089178
   0.14892830  0.74676085  0.95089178
   0.64892831  0.74676085  0.95089178
   0.30383774  0.55674550  0.05357598
   0.80383777  0.55674550  0.05357598
   0.15987460  0.31926410  0.40543904
   0.65987457  0.31926410  0.40543904
   0.26121928  0.47413010  0.13718059
   0.76121925  0.47413010  0.13718059
   0.15393725  0.18346950  0.30237409
   0.65393723  0.18346950  0.30237409
   0.25081641  0.49705785  0.25058728
   0.75081641  0.49705785  0.25058728
   0.01032630  0.96201874  0.03889103
   0.51032631  0.96201874  0.03889103
   0.05042792  0.05250353  0.14901880
   0.55042794  0.05250353  0.14901880
   0.30383774  0.05674549  0.55357599
   0.80383777  0.05674549  0.55357599
   0.15987460  0.81926407  0.90543904
   0.65987457  0.81926407  0.90543904
   0.26121928  0.97413013  0.63718059
   0.76121925  0.97413013  0.63718059
   0.15393725  0.68346948  0.80237409
   0.65393723  0.68346948  0.80237409
   0.25081641  0.99705788  0.75058731
   0.75081641  0.99705788  0.75058731
   0.01032630  0.46201877  0.53889103
   0.51032631  0.46201877  0.53889103
   0.05042792  0.55250359  0.64901883
   0.55042794  0.55250359  0.64901883
   0.05374675  0.44769628  0.94667750
   0.55374672  0.44769628  0.94667750
   0.41251318  0.67893155  0.59649237
   0.91251318  0.67893155  0.59649237
   0.01287493  0.52292516  0.86218651
   0.51287492  0.52292516  0.86218651
   0.39563477  0.80890145  0.69506508
   0.89563477  0.80890145  0.69506508
   0.99979218  0.50461685  0.74887020
   0.49979218  0.50461685  0.74887020
   0.26097497  0.03544898  0.96242843
   0.76097497  0.03544898  0.96242843
   0.29534841  0.95550943  0.85166281
   0.79534841  0.95550943  0.85166281
   0.05374675  0.94769633  0.44667747
   0.55374672  0.94769633  0.44667747
   0.41251318  0.17893158  0.09649237
   0.91251318  0.17893158  0.09649237
   0.01287493  0.02292516  0.36218654
   0.51287492  0.02292516  0.36218654
   0.39563477  0.30890142  0.19506510
   0.89563477  0.30890142  0.19506510
   0.99979218  0.00461686  0.24887023
   0.49979218  0.00461686  0.24887023
   0.26097497  0.53544897  0.46242840
   0.76097497  0.53544897  0.46242840
   0.29534841  0.45550952  0.35166287
   0.79534841  0.45550952  0.35166287
   0.05328061  0.44747539  0.05377354
   0.55328060  0.44747539  0.05377354
   0.40914011  0.68306594  0.40483994
   0.90914011  0.68306594  0.40483994
   0.01166156  0.52679781  0.13666224
   0.51166153  0.52679781  0.13666224
   0.39464363  0.80754570  0.30382653
   0.89464363  0.80754570  0.30382653
   0.00002853  0.50711079  0.25089534
   0.50002855  0.50711079  0.25089534
   0.25911681  0.03474682  0.03878252
   0.75911681  0.03474682  0.03878252
   0.30016086  0.94659892  0.14905741
   0.80016089  0.94659892  0.14905741
   0.05328061  0.94747536  0.55377361
   0.55328060  0.94747536  0.55377361
   0.40914011  0.18306599  0.90483994
   0.90914011  0.18306599  0.90483994
   0.01166156  0.02679776  0.63666224
   0.51166153  0.02679776  0.63666224
   0.39464363  0.30754573  0.80382653
   0.89464363  0.30754573  0.80382653
   0.00002853  0.00711077  0.75089534
   0.50002855  0.00711077  0.75089534
   0.25911681  0.53474680  0.53878248
   0.75911681  0.53474680  0.53878248
   0.30016086  0.44659892  0.64905743
   0.80016089  0.44659892  0.64905743
   0.30360668  0.55153229  0.94677591
   0.80360668  0.55153229  0.94677591
   0.15941800  0.31798160  0.59614056
   0.65941803  0.31798160  0.59614056
   0.26331161  0.47687646  0.86252144
   0.76331164  0.47687646  0.86252144
   0.13906914  0.19039812  0.69535180
   0.63906912  0.19039812  0.69535180
   0.25126355  0.49417948  0.74827961
   0.75126358  0.49417948  0.74827961
   0.01112464  0.96426721  0.96240317
   0.51112462  0.96426721  0.96240317
   0.04663540  0.04448986  0.85141614
   0.54663540  0.04448986  0.85141614
   0.30360668  0.05153226  0.44677597
   0.80360668  0.05153226  0.44677597
   0.15941800  0.81798160  0.09614058
   0.65941803  0.81798160  0.09614058
   0.26331161  0.97687640  0.36252141
   0.76331164  0.97687640  0.36252141
   0.13906914  0.69039815  0.19535175
   0.63906912  0.69039815  0.19535175
   0.25126355  0.99417948  0.24827956
   0.75126358  0.99417948  0.24827956
   0.01112464  0.46426724  0.46240320
   0.51112462  0.46426724  0.46240320
   0.04663540  0.54448986  0.35141623
   0.54663540  0.54448986  0.35141623
   0.16266766  0.16691424  0.50044231
   0.66266764  0.16691424  0.50044231
   0.16266766  0.66691431  0.00044236
   0.66266764  0.66691431  0.00044236
   0.41363918  0.83255641  0.50017926
   0.91363915  0.83255641  0.50017926
   0.41363918  0.33255650  0.00017929
   0.91363915  0.33255650  0.00017929
   0.14490557  0.24615286  0.34589650
   0.64490554  0.24615286  0.34589650
   0.14490557  0.74615288  0.84589653
   0.64490554  0.74615288  0.84589653