BiTiFeO                                 
           1
    10.986845   -0.000842    0.004593
    -0.005146    5.480210   -0.000764
     0.224392   -0.011545   41.188338
   Bi   Ti   O    Fe
  40  24 120   8
Direct configuration=     1
   0.12495308  0.24870378  0.10361708
   0.62495309  0.24870378  0.10361708
   0.11731881  0.27528781  0.22016934
   0.61731881  0.27528781  0.22016934
   0.12495308  0.74870378  0.60361707
   0.62495309  0.74870378  0.60361707
   0.11731881  0.77528787  0.72016931
   0.61731881  0.77528787  0.72016931
   0.37067792  0.75285137  0.89369702
   0.87067795  0.75285137  0.89369702
   0.35814816  0.73132610  0.78173429
   0.85814816  0.73132610  0.78173429
   0.37067792  0.25285137  0.39369708
   0.87067795  0.25285137  0.39369708
   0.35814816  0.23132609  0.28173423
   0.85814816  0.23132609  0.28173423
   0.37408331  0.75085628  0.10358244
   0.87408328  0.75085628  0.10358244
   0.37313765  0.73197222  0.22021626
   0.87313765  0.73197222  0.22021626
   0.37408331  0.25085631  0.60358244
   0.87408328  0.25085631  0.60358244
   0.37313765  0.23197220  0.72021627
   0.87313765  0.23197220  0.72021627
   0.12761018  0.24018723  0.89328021
   0.62761021  0.24018723  0.89328021
   0.11666837  0.28296581  0.78125173
   0.61666834  0.28296581  0.78125173
   0.12761018  0.74018729  0.39328024
   0.62761021  0.74018729  0.39328024
   0.11666837  0.78296578  0.28125179
   0.61666834  0.78296578  0.28125179
   0.12745233  0.24436967  0.99728024
   0.62745231  0.24436967  0.99728024
   0.12745233  0.74436969  0.49728024
   0.62745231  0.74436969  0.49728024
   0.37485728  0.75821996  0.99734795
   0.87485731  0.75821996  0.99734795
   0.37485728  0.25821996  0.49734786
   0.87485731  0.25821996  0.49734786
   0.39702639  0.75169253  0.34695026
   0.89702642  0.75169253  0.34695026
   0.39702639  0.25169253  0.84695029
   0.89702642  0.25169253  0.84695029
   0.39621282  0.74958307  0.65225780
   0.89621282  0.74958307  0.65225780
   0.39621282  0.24958305  0.15225779
   0.89621282  0.24958305  0.15225779
   0.40097812  0.75454879  0.45042512
   0.90097809  0.75454879  0.45042512
   0.40097812  0.25454882  0.95042509
   0.90097809  0.25454882  0.95042509
   0.14619410  0.24801458  0.54898715
   0.64619410  0.24801458  0.54898715
   0.14569117  0.24933521  0.65227449
   0.64569116  0.24933521  0.65227449
   0.14569117  0.74933523  0.15227447
   0.64569116  0.74933523  0.15227447
   0.14619410  0.74801457  0.04898712
   0.64619410  0.74801457  0.04898712
   0.39672869  0.75080293  0.54924494
   0.89672869  0.75080293  0.54924494
   0.39672869  0.25080296  0.04924493
   0.89672869  0.25080296  0.04924493
   0.29519296  0.53794730  0.05577410
   0.79519296  0.53794730  0.05577410
   0.16367294  0.31864908  0.40486768
   0.66367292  0.31864908  0.40486768
   0.26119387  0.47223544  0.13711990
   0.76119387  0.47223544  0.13711990
   0.15426658  0.18324970  0.30251402
   0.65426660  0.18324970  0.30251402
   0.25070524  0.49806595  0.25068307
   0.75070524  0.49806595  0.25068307
   0.01044856  0.96728170  0.03988236
   0.51044857  0.96728170  0.03988236
   0.05107059  0.05403416  0.14879955
   0.55107057  0.05403416  0.14879955
   0.29519296  0.03794733  0.55577409
   0.79519296  0.03794733  0.55577409
   0.16367294  0.81864911  0.90486771
   0.66367292  0.81864911  0.90486771
   0.26119387  0.97223550  0.63711989
   0.76119387  0.97223550  0.63711989
   0.15426658  0.68324965  0.80251402
   0.65426660  0.68324965  0.80251402
   0.25070524  0.99806595  0.75068313
   0.75070524  0.99806595  0.75068313
   0.01044856  0.46728173  0.53988236
   0.51044857  0.46728173  0.53988236
   0.05107059  0.55403423  0.64879960
   0.55107057  0.55403423  0.64879960
   0.05974159  0.43524927  0.94856775
   0.55974162  0.43524927  0.94856775
   0.40989307  0.67734867  0.59631020
   0.90989304  0.67734867  0.59631020
   0.01226671  0.52137560  0.86181676
   0.51226670  0.52137560  0.86181676
   0.39487934  0.80745369  0.69519424
   0.89487934  0.80745369  0.69519424
   0.99989116  0.50560921  0.74892795
   0.49989116  0.50560921  0.74892795
   0.26320869  0.03704368  0.96271062
   0.76320869  0.03704368  0.96271062
   0.29561788  0.95612490  0.85125524
   0.79561788  0.95612490  0.85125524
   0.05974159  0.93524933  0.44856772
   0.55974162  0.93524933  0.44856772
   0.40989307  0.17734867  0.09631024
   0.90989304  0.17734867  0.09631024
   0.01226671  0.02137563  0.36181673
   0.51226670  0.02137563  0.36181673
   0.39487934  0.30745366  0.19519423
   0.89487934  0.30745366  0.19519423
   0.99989116  0.00560925  0.24892797
   0.49989116  0.00560925  0.24892797
   0.26320869  0.53704369  0.46271062
   0.76320869  0.53704369  0.46271062
   0.29561788  0.45612496  0.35125530
   0.79561788  0.45612496  0.35125530
   0.04515152  0.46006009  0.05576088
   0.54515153  0.46006009  0.05576088
   0.40761903  0.68754715  0.40470216
   0.90761900  0.68754715  0.40470216
   0.01138846  0.52593374  0.13670594
   0.51138848  0.52593374  0.13670594
   0.39492339  0.80845076  0.30351970
   0.89492339  0.80845076  0.30351970
   0.99999571  0.50805694  0.25094265
   0.49999571  0.50805694  0.25094265
   0.26108837  0.03120307  0.03965877
   0.76108837  0.03120307  0.03965877
   0.30106816  0.94483852  0.14914982
   0.80106819  0.94483852  0.14914982
   0.04515152  0.96006006  0.55576092
   0.54515153  0.96006006  0.55576092
   0.40761903  0.18754716  0.90470219
   0.90761900  0.18754716  0.90470219
   0.01138846  0.02593372  0.63670594
   0.51138848  0.02593372  0.63670594
   0.39492339  0.30845079  0.80351967
   0.89492339  0.30845079  0.80351967
   0.99999571  0.00805696  0.75094265
   0.49999571  0.00805696  0.75094265
   0.26108837  0.53120309  0.53965873
   0.76108837  0.53120309  0.53965873
   0.30106816  0.44483849  0.64914984
   0.80106819  0.44483849  0.64914984
   0.30946875  0.55858421  0.94858700
   0.80946875  0.55858421  0.94858700
   0.16098753  0.32159147  0.59628218
   0.66098750  0.32159147  0.59628218
   0.26314369  0.47483063  0.86227948
   0.76314366  0.47483063  0.86227948
   0.13830391  0.19146504  0.69512230
   0.63830388  0.19146504  0.69512230
   0.25123647  0.49530646  0.74836892
   0.75123644  0.49530646  0.74836892
   0.01128946  0.96520823  0.96255463
   0.51128948  0.96520823  0.96255463
   0.04661883  0.04446787  0.85118789
   0.54661882  0.04446787  0.85118789
   0.30946875  0.05858416  0.44858706
   0.80946875  0.05858416  0.44858706
   0.16098753  0.82159144  0.09628221
   0.66098750  0.82159144  0.09628221
   0.26314369  0.97483063  0.36227944
   0.76314366  0.97483063  0.36227944
   0.13830391  0.69146502  0.19512223
   0.63830388  0.69146502  0.19512223
   0.25123647  0.99530643  0.24836887
   0.75123644  0.99530643  0.24836887
   0.01128946  0.46520826  0.46255460
   0.51128948  0.46520826  0.46255460
   0.04661883  0.54446787  0.35118797
   0.54661882  0.54446787  0.35118797
   0.16323769  0.16840001  0.50118476
   0.66323769  0.16840001  0.50118476
   0.16323769  0.66840005  0.00118482
   0.66323769  0.66840005  0.00118482
   0.41308534  0.83080488  0.50101650
   0.91308534  0.83080488  0.50101650
   0.41308534  0.33080494  0.00101650
   0.91308534  0.33080494  0.00101650
   0.14377600  0.24415045  0.34615430
   0.64377600  0.24415045  0.34615430
   0.14377600  0.74415046  0.84615433
   0.64377600  0.74415046  0.84615433
   0.14783000  0.24671462  0.45008230
   0.64783001  0.24671462  0.45008230
   0.14783000  0.74671459  0.95008230
   0.64783001  0.74671459  0.95008230
BiTiFeO                                 
           1
    10.989265   -0.000854    0.005248
    -0.005154    5.480674   -0.000835
     0.226894   -0.012077   41.201333
   Bi   Ti   O    Fe
  40  24 120   8
Direct configuration=     2
   0.12495178  0.24871075  0.10361611
   0.62495179  0.24871075  0.10361611
   0.11729590  0.27530071  0.22016547
   0.61729590  0.27530071  0.22016547
   0.12495178  0.74871075  0.60361610
   0.62495179  0.74871075  0.60361610
   0.11729590  0.77530077  0.72016544
   0.61729590  0.77530077  0.72016544
   0.37067202  0.75286233  0.89369596
   0.87067205  0.75286233  0.89369596
   0.35812827  0.73133177  0.78172743
   0.85812827  0.73133177  0.78172743
   0.37067202  0.25286233  0.39369602
   0.87067205  0.25286233  0.39369602
   0.35812827  0.23133176  0.28172737
   0.85812827  0.23133176  0.28172737
   0.37408459  0.75085629  0.10358178
   0.87408456  0.75085629  0.10358178
   0.37311886  0.73197637  0.22021299
   0.87311886  0.73197637  0.22021299
   0.37408459  0.25085632  0.60358178
   0.87408456  0.25085632  0.60358178
   0.37311886  0.23197636  0.72021301
   0.87311886  0.23197636  0.72021301
   0.12760372  0.24015727  0.89327659
   0.62760375  0.24015727  0.89327659
   0.11665177  0.28297251  0.78124531
   0.61665175  0.28297251  0.78124531
   0.12760372  0.74015733  0.39327662
   0.62760375  0.74015733  0.39327662
   0.11665177  0.78297248  0.28124537
   0.61665175  0.78297248  0.28124537
   0.12746713  0.24435777  0.99728335
   0.62746712  0.24435777  0.99728335
   0.12746713  0.74435779  0.49728335
   0.62746712  0.74435779  0.49728335
   0.37486574  0.75822269  0.99735067
   0.87486577  0.75822269  0.99735067
   0.37486574  0.25822269  0.49735059
   0.87486577  0.25822269  0.49735059
   0.39701872  0.75169692  0.34695557
   0.89701875  0.75169692  0.34695557
   0.39701872  0.25169692  0.84695560
   0.89701875  0.25169692  0.84695560
   0.39621197  0.74957622  0.65224896
   0.89621197  0.74957622  0.65224896
   0.39621197  0.24957621  0.15224894
   0.89621197  0.24957621  0.15224894
   0.40098235  0.75455183  0.45042688
   0.90098232  0.75455183  0.45042688
   0.40098235  0.25455186  0.95042685
   0.90098232  0.25455186  0.95042685
   0.14619607  0.24801444  0.54898878
   0.64619607  0.24801444  0.54898878
   0.14568928  0.24934122  0.65226664
   0.64568927  0.24934122  0.65226664
   0.14568928  0.74934123  0.15226663
   0.64568927  0.74934123  0.15226663
   0.14619607  0.74801443  0.04898875
   0.64619607  0.74801443  0.04898875
   0.39673261  0.75080222  0.54924762
   0.89673261  0.75080222  0.54924762
   0.39673261  0.25080225  0.04924761
   0.89673261  0.25080225  0.04924761
   0.29516430  0.53789238  0.05577710
   0.79516430  0.53789238  0.05577710
   0.16364450  0.31864232  0.40487297
   0.66364449  0.31864232  0.40487297
   0.26122148  0.47222240  0.13711875
   0.76122148  0.47222240  0.13711875
   0.15429426  0.18324267  0.30251073
   0.65429428  0.18324267  0.30251073
   0.25067425  0.49807119  0.25067842
   0.75067425  0.49807119  0.25067842
   0.01045892  0.96731209  0.03988261
   0.51045894  0.96731209  0.03988261
   0.05104361  0.05403408  0.14880036
   0.55104359  0.05403408  0.14880036
   0.29516430  0.03789241  0.55577709
   0.79516430  0.03789241  0.55577709
   0.16364450  0.81864235  0.90487300
   0.66364449  0.81864235  0.90487300
   0.26122148  0.97222246  0.63711874
   0.76122148  0.97222246  0.63711874
   0.15429426  0.68324263  0.80251073
   0.65429428  0.68324263  0.80251073
   0.25067425  0.99807119  0.75067848
   0.75067425  0.99807119  0.75067848
   0.01045892  0.46731212  0.53988261
   0.51045894  0.46731212  0.53988261
   0.05104361  0.55403415  0.64880040
   0.55104359  0.55403415  0.64880040
   0.05980696  0.43523545  0.94856981
   0.55980699  0.43523545  0.94856981
   0.40992490  0.67732792  0.59631056
   0.90992487  0.67732792  0.59631056
   0.01224065  0.52137080  0.86181400
   0.51224063  0.52137080  0.86181400
   0.39489963  0.80748144  0.69519639
   0.89489963  0.80748144  0.69519639
   0.99987196  0.50562425  0.74892465
   0.49987196  0.50562425  0.74892465
   0.26327089  0.03704709  0.96271607
   0.76327089  0.03704709  0.96271607
   0.29556851  0.95620930  0.85125982
   0.79556851  0.95620930  0.85125982
   0.05980696  0.93523551  0.44856978
   0.55980699  0.93523551  0.44856978
   0.40992490  0.17732792  0.09631060
   0.90992487  0.17732792  0.09631060
   0.01224065  0.02137083  0.36181397
   0.51224063  0.02137083  0.36181397
   0.39489963  0.30748141  0.19519638
   0.89489963  0.30748141  0.19519638
   0.99987196  0.00562429  0.24892466
   0.49987196  0.00562429  0.24892466
   0.26327089  0.53704710  0.46271607
   0.76327089  0.53704710  0.46271607
   0.29556851  0.45620936  0.35125988
   0.79556851  0.45620936  0.35125988
   0.04514980  0.46011285  0.05576439
   0.54514981  0.46011285  0.05576439
   0.40763507  0.68754413  0.40470684
   0.90763504  0.68754413  0.40470684
   0.01136853  0.52594686  0.13670388
   0.51136855  0.52594686  0.13670388
   0.39493673  0.80845443  0.30351274
   0.89493673  0.80845443  0.30351274
   0.99997916  0.50806387  0.25093909
   0.49997916  0.50806387  0.25093909
   0.26113958  0.03117474  0.03965935
   0.76113958  0.03117474  0.03965935
   0.30111526  0.94484258  0.14915172
   0.80111529  0.94484258  0.14915172
   0.04514980  0.96011282  0.55576443
   0.54514981  0.96011282  0.55576443
   0.40763507  0.18754414  0.90470687
   0.90763504  0.18754414  0.90470687
   0.01136853  0.02594683  0.63670388
   0.51136855  0.02594683  0.63670388
   0.39493673  0.30845446  0.80351271
   0.89493673  0.30845446  0.80351271
   0.99997916  0.00806388  0.75093909
   0.49997916  0.00806388  0.75093909
   0.26113958  0.53117476  0.53965930
   0.76113958  0.53117476  0.53965930
   0.30111526  0.44484255  0.64915173
   0.80111529  0.44484255  0.64915173
   0.30945341  0.55860471  0.94858996
   0.80945341  0.55860471  0.94858996
   0.16096247  0.32160991  0.59628316
   0.66096244  0.32160991  0.59628316
   0.26318753  0.47484029  0.86227808
   0.76318750  0.47484029  0.86227808
   0.13830481  0.19144630  0.69512402
   0.63830478  0.19144630  0.69512402
   0.25119689  0.49530231  0.74836530
   0.75119686  0.49530231  0.74836530
   0.01129275  0.96518329  0.96256001
   0.51129276  0.96518329  0.96256001
   0.04658214  0.04437328  0.85119052
   0.54658213  0.04437328  0.85119052
   0.30945341  0.05860465  0.44859002
   0.80945341  0.05860465  0.44859002
   0.16096247  0.82160988  0.09628318
   0.66096244  0.82160988  0.09628318
   0.26318753  0.97484029  0.36227805
   0.76318750  0.97484029  0.36227805
   0.13830481  0.69144628  0.19512395
   0.63830478  0.69144628  0.19512395
   0.25119689  0.99530228  0.24836525
   0.75119686  0.99530228  0.24836525
   0.01129275  0.46518332  0.46255998
   0.51129276  0.46518332  0.46255998
   0.04658214  0.54437328  0.35119061
   0.54658213  0.54437328  0.35119061
   0.16321766  0.16838279  0.50118719
   0.66321766  0.16838279  0.50118719
   0.16321766  0.66838283  0.00118725
   0.66321766  0.66838283  0.00118725
   0.41312433  0.83081833  0.50101955
   0.91312433  0.83081833  0.50101955
   0.41312433  0.33081839  0.00101955
   0.91312433  0.33081839  0.00101955
   0.14376634  0.24414743  0.34615583
   0.64376634  0.24414743  0.34615583
   0.14376634  0.74414745  0.84615586
   0.64376634  0.74414745  0.84615586
   0.14783175  0.24670702  0.45008595
   0.64783176  0.24670702  0.45008595
   0.14783175  0.74670699  0.95008595
   0.64783176  0.74670699  0.95008595
BiTiFeO                                 
           1
    10.988178   -0.000893    0.005648
    -0.005172    5.479723   -0.000924
     0.228365   -0.012743   41.214885
   Bi   Ti   O    Fe
  40  24 120   8
Direct configuration=     3
   0.12495909  0.24876008  0.10361292
   0.62495910  0.24876008  0.10361292
   0.11731371  0.27525161  0.22015268
   0.61731371  0.27525161  0.22015268
   0.12495909  0.74876008  0.60361291
   0.62495910  0.74876008  0.60361291
   0.11731371  0.77525167  0.72015265
   0.61731371  0.77525167  0.72015265
   0.37066621  0.75289499  0.89368755
   0.87066624  0.75289499  0.89368755
   0.35812746  0.73138747  0.78171904
   0.85812746  0.73138747  0.78171904
   0.37066621  0.25289499  0.39368761
   0.87066624  0.25289499  0.39368761
   0.35812746  0.23138746  0.28171898
   0.85812746  0.23138746  0.28171898
   0.37411168  0.75079251  0.10357891
   0.87411165  0.75079251  0.10357891
   0.37314056  0.73198881  0.22020457
   0.87314056  0.73198881  0.22020457
   0.37411168  0.25079254  0.60357891
   0.87411165  0.25079254  0.60357891
   0.37314056  0.23198880  0.72020459
   0.87314056  0.23198880  0.72020459
   0.12757509  0.24013161  0.89326621
   0.62757512  0.24013161  0.89326621
   0.11660751  0.28290791  0.78123932
   0.61660748  0.28290791  0.78123932
   0.12757509  0.74013167  0.39326624
   0.62757512  0.74013167  0.39326624
   0.11660751  0.78290788  0.28123937
   0.61660748  0.78290788  0.28123937
   0.12745646  0.24434112  0.99728157
   0.62745644  0.24434112  0.99728157
   0.12745646  0.74434114  0.49728157
   0.62745644  0.74434114  0.49728157
   0.37487876  0.75823570  0.99735138
   0.87487879  0.75823570  0.99735138
   0.37487876  0.25823570  0.49735129
   0.87487879  0.25823570  0.49735129
   0.39704714  0.75176844  0.34689363
   0.89704717  0.75176844  0.34689363
   0.39704714  0.25176844  0.84689366
   0.89704717  0.25176844  0.84689366
   0.39621494  0.74973859  0.65230712
   0.89621494  0.74973859  0.65230712
   0.39621494  0.24973857  0.15230710
   0.89621494  0.24973857  0.15230710
   0.40103943  0.75456069  0.45041475
   0.90103940  0.75456069  0.45041475
   0.40103943  0.25456072  0.95041472
   0.90103940  0.25456072  0.95041472
   0.14622148  0.24804840  0.54899524
   0.64622148  0.24804840  0.54899524
   0.14567273  0.24923143  0.65232625
   0.64567272  0.24923143  0.65232625
   0.14567273  0.74923144  0.15232624
   0.64567272  0.74923144  0.15232624
   0.14622148  0.74804839  0.04899521
   0.64622148  0.74804839  0.04899521
   0.39677488  0.75080157  0.54925556
   0.89677488  0.75080157  0.54925556
   0.39677488  0.25080160  0.04925555
   0.89677488  0.25080160  0.04925555
   0.29512000  0.53790146  0.05577849
   0.79512000  0.53790146  0.05577849
   0.16360266  0.31860215  0.40489312
   0.66360264  0.31860215  0.40489312
   0.26121038  0.47217019  0.13711218
   0.76121038  0.47217019  0.13711218
   0.15429489  0.18331408  0.30253536
   0.65429490  0.18331408  0.30253536
   0.25063699  0.49805893  0.25067159
   0.75063699  0.49805893  0.25067159
   0.01047148  0.96730084  0.03988142
   0.51047150  0.96730084  0.03988142
   0.05104554  0.05407667  0.14878691
   0.55104552  0.05407667  0.14878691
   0.29512000  0.03790150  0.55577849
   0.79512000  0.03790150  0.55577849
   0.16360266  0.81860218  0.90489315
   0.66360264  0.81860218  0.90489315
   0.26121038  0.97217025  0.63711217
   0.76121038  0.97217025  0.63711217
   0.15429489  0.68331404  0.80253536
   0.65429490  0.68331404  0.80253536
   0.25063699  0.99805893  0.75067165
   0.75063699  0.99805893  0.75067165
   0.01047148  0.46730087  0.53988142
   0.51047150  0.46730087  0.53988142
   0.05104554  0.55407674  0.64878696
   0.55104552  0.55407674  0.64878696
   0.05985608  0.43515402  0.94857911
   0.55985611  0.43515402  0.94857911
   0.40994377  0.67733736  0.59630321
   0.90994374  0.67733736  0.59630321
   0.01223887  0.52141214  0.86181592
   0.51223886  0.52141214  0.86181592
   0.39490761  0.80742736  0.69515443
   0.89490761  0.80742736  0.69515443
   0.99984950  0.50561779  0.74892886
   0.49984950  0.50561779  0.74892886
   0.26329503  0.03701536  0.96272102
   0.76329503  0.03701536  0.96272102
   0.29551483  0.95618534  0.85128316
   0.79551483  0.95618534  0.85128316
   0.05985608  0.93515408  0.44857908
   0.55985611  0.93515408  0.44857908
   0.40994377  0.17733736  0.09630325
   0.90994374  0.17733736  0.09630325
   0.01223887  0.02141217  0.36181589
   0.51223886  0.02141217  0.36181589
   0.39490761  0.30742733  0.19515442
   0.89490761  0.30742733  0.19515442
   0.99984950  0.00561782  0.24892887
   0.49984950  0.00561782  0.24892887
   0.26329503  0.53701537  0.46272102
   0.76329503  0.53701537  0.46272102
   0.29551483  0.45618540  0.35128322
   0.79551483  0.45618540  0.35128322
   0.04512922  0.46010022  0.05576796
   0.54512923  0.46010022  0.05576796
   0.40764519  0.68759054  0.40472885
   0.90764516  0.68759054  0.40472885
   0.01135189  0.52604323  0.13669667
   0.51135191  0.52604323  0.13669667
   0.39494871  0.80838685  0.30355264
   0.89494871  0.80838685  0.30355264
   0.99993415  0.50809263  0.25092973
   0.49993415  0.50809263  0.25092973
   0.26115088  0.03114597  0.03965833
   0.76115088  0.03114597  0.03965833
   0.30112286  0.94474264  0.14914147
   0.80112289  0.94474264  0.14914147
   0.04512922  0.96010019  0.55576799
   0.54512923  0.96010019  0.55576799
   0.40764519  0.18759055  0.90472888
   0.90764516  0.18759055  0.90472888
   0.01135189  0.02604321  0.63669667
   0.51135191  0.02604321  0.63669667
   0.39494871  0.30838688  0.80355261
   0.89494871  0.30838688  0.80355261
   0.99993415  0.00809264  0.75092973
   0.49993415  0.00809264  0.75092973
   0.26115088  0.53114599  0.53965828
   0.76115088  0.53114599  0.53965828
   0.30112286  0.44474261  0.64914148
   0.80112289  0.44474261  0.64914148
   0.30945656  0.55865020  0.94859999
   0.80945656  0.55865020  0.94859999
   0.16094428  0.32160572  0.59627954
   0.66094425  0.32160572  0.59627954
   0.26318304  0.47488440  0.86227890
   0.76318301  0.47488440  0.86227890
   0.13830477  0.19152954  0.69507711
   0.63830474  0.19152954  0.69507711
   0.25115903  0.49534024  0.74836521
   0.75115900  0.49534024  0.74836521
   0.01130381  0.96513010  0.96256357
   0.51130383  0.96513010  0.96256357
   0.04656072  0.04430413  0.85120623
   0.54656071  0.04430413  0.85120623
   0.30945656  0.05865015  0.44860005
   0.80945656  0.05865015  0.44860005
   0.16094428  0.82160569  0.09627956
   0.66094425  0.82160569  0.09627956
   0.26318304  0.97488440  0.36227887
   0.76318301  0.97488440  0.36227887
   0.13830477  0.69152953  0.19507703
   0.63830474  0.69152953  0.19507703
   0.25115903  0.99534021  0.24836517
   0.75115900  0.99534021  0.24836517
   0.01130381  0.46513013  0.46256354
   0.51130383  0.46513013  0.46256354
   0.04656072  0.54430413  0.35120632
   0.54656071  0.54430413  0.35120632
   0.16319787  0.16840212  0.50119921
   0.66319787  0.16840212  0.50119921
   0.16319787  0.66840216  0.00119926
   0.66319787  0.66840216  0.00119926
   0.41315471  0.83081915  0.50102559
   0.91315471  0.83081915  0.50102559
   0.41315471  0.33081921  0.00102559
   0.91315471  0.33081921  0.00102559
   0.14379097  0.24406799  0.34612138
   0.64379097  0.24406799  0.34612138
   0.14379097  0.74406800  0.84612141
   0.64379097  0.74406800  0.84612141
   0.14786640  0.24674952  0.45007606
   0.64786642  0.24674952  0.45007606
   0.14786640  0.74674949  0.95007606
   0.64786642  0.74674949  0.95007606
BiTiFeO                                 
           1
    10.986207   -0.000938    0.005883
    -0.005194    5.478565   -0.000942
     0.229208   -0.012872   41.213566
   Bi   Ti   O    Fe
  40  24 120   8
Direct configuration=     4
   0.12495222  0.24876452  0.10360649
   0.62495222  0.24876452  0.10360649
   0.11732290  0.27521474  0.22014874
   0.61732290  0.27521474  0.22014874
   0.12495222  0.74876452  0.60360648
   0.62495222  0.74876452  0.60360648
   0.11732290  0.77521480  0.72014871
   0.61732290  0.77521480  0.72014871
   0.37064689  0.75292224  0.89368769
   0.87064692  0.75292224  0.89368769
   0.35810314  0.73142952  0.78171099
   0.85810314  0.73142952  0.78171099
   0.37064689  0.25292224  0.39368775
   0.87064692  0.25292224  0.39368775
   0.35810314  0.23142950  0.28171093
   0.85810314  0.23142950  0.28171093
   0.37411035  0.75077909  0.10357349
   0.87411032  0.75077909  0.10357349
   0.37314738  0.73200741  0.22020165
   0.87314738  0.73200741  0.22020165
   0.37411035  0.25077912  0.60357349
   0.87411032  0.25077912  0.60357349
   0.37314738  0.23200739  0.72020167
   0.87314738  0.23200739  0.72020167
   0.12754938  0.24010405  0.89326448
   0.62754941  0.24010405  0.89326448
   0.11658049  0.28288967  0.78123307
   0.61658046  0.28288967  0.78123307
   0.12754938  0.74010411  0.39326451
   0.62754941  0.74010411  0.39326451
   0.11658049  0.78288964  0.28123312
   0.61658046  0.78288964  0.28123312
   0.12745023  0.24433330  0.99728158
   0.62745021  0.24433330  0.99728158
   0.12745023  0.74433331  0.49728158
   0.62745021  0.74433331  0.49728158
   0.37487802  0.75824593  0.99735271
   0.87487805  0.75824593  0.99735271
   0.37487802  0.25824593  0.49735263
   0.87487805  0.25824593  0.49735263
   0.39705662  0.75175370  0.34691293
   0.89705665  0.75175370  0.34691293
   0.39705662  0.25175370  0.84691296
   0.89705665  0.25175370  0.84691296
   0.39621773  0.74971915  0.65227490
   0.89621773  0.74971915  0.65227490
   0.39621773  0.24971914  0.15227488
   0.89621773  0.24971914  0.15227488
   0.40106626  0.75457039  0.45042072
   0.90106623  0.75457039  0.45042072
   0.40106626  0.25457042  0.95042069
   0.90106623  0.25457042  0.95042069
   0.14623864  0.24807580  0.54899778
   0.64623864  0.24807580  0.54899778
   0.14568214  0.24927687  0.65229179
   0.64568213  0.24927687  0.65229179
   0.14568214  0.74927689  0.15229177
   0.64568213  0.74927689  0.15229177
   0.14623864  0.74807578  0.04899775
   0.64623864  0.74807578  0.04899775
   0.39679314  0.75079547  0.54925772
   0.89679314  0.75079547  0.54925772
   0.39679314  0.25079550  0.04925771
   0.89679314  0.25079550  0.04925771
   0.29510175  0.53788477  0.05578146
   0.79510175  0.53788477  0.05578146
   0.16358057  0.31859249  0.40490171
   0.66358055  0.31859249  0.40490171
   0.26120510  0.47213073  0.13711671
   0.76120510  0.47213073  0.13711671
   0.15430647  0.18331442  0.30252906
   0.65430649  0.18331442  0.30252906
   0.25061313  0.49805454  0.25066397
   0.75061313  0.49805454  0.25066397
   0.01047976  0.96729312  0.03988111
   0.51047978  0.96729312  0.03988111
   0.05104303  0.05409698  0.14878591
   0.55104301  0.05409698  0.14878591
   0.29510175  0.03788481  0.55578146
   0.79510175  0.03788481  0.55578146
   0.16358057  0.81859252  0.90490174
   0.66358055  0.81859252  0.90490174
   0.26120510  0.97213079  0.63711670
   0.76120510  0.97213079  0.63711670
   0.15430647  0.68331437  0.80252906
   0.65430649  0.68331437  0.80252906
   0.25061313  0.99805454  0.75066403
   0.75061313  0.99805454  0.75066403
   0.01047976  0.46729315  0.53988111
   0.51047978  0.46729315  0.53988111
   0.05104303  0.55409705  0.64878595
   0.55104301  0.55409705  0.64878595
   0.05989708  0.43509870  0.94858277
   0.55989711  0.43509870  0.94858277
   0.40996209  0.67732966  0.59629922
   0.90996206  0.67732966  0.59629922
   0.01223469  0.52142315  0.86180981
   0.51223467  0.52142315  0.86180981
   0.39491153  0.80747779  0.69518318
   0.89491153  0.80747779  0.69518318
   0.99983318  0.50561376  0.74893042
   0.49983318  0.50561376  0.74893042
   0.26332187  0.03700781  0.96272296
   0.76332187  0.03700781  0.96272296
   0.29548654  0.95622431  0.85129329
   0.79548654  0.95622431  0.85129329
   0.05989708  0.93509876  0.44858274
   0.55989711  0.93509876  0.44858274
   0.40996209  0.17732966  0.09629926
   0.90996206  0.17732966  0.09629926
   0.01223469  0.02142318  0.36180978
   0.51223467  0.02142318  0.36180978
   0.39491153  0.30747776  0.19518317
   0.89491153  0.30747776  0.19518317
   0.99983318  0.00561380  0.24893043
   0.49983318  0.00561380  0.24893043
   0.26332187  0.53700782  0.46272296
   0.76332187  0.53700782  0.46272296
   0.29548654  0.45622437  0.35129335
   0.79548654  0.45622437  0.35129335
   0.04512010  0.46010000  0.05577246
   0.54512011  0.46010000  0.05577246
   0.40765977  0.68760662  0.40473635
   0.90765974  0.68760662  0.40473635
   0.01133995  0.52610208  0.13670101
   0.51133997  0.52610208  0.13670101
   0.39495771  0.80840224  0.30353049
   0.89495771  0.80840224  0.30353049
   0.99990440  0.50810442  0.25091963
   0.49990440  0.50810442  0.25091963
   0.26116768  0.03114192  0.03965850
   0.76116768  0.03114192  0.03965850
   0.30113413  0.94471027  0.14914238
   0.80113416  0.94471027  0.14914238
   0.04512010  0.96009997  0.55577249
   0.54512011  0.96009997  0.55577249
   0.40765977  0.18760663  0.90473638
   0.90765974  0.18760663  0.90473638
   0.01133995  0.02610205  0.63670101
   0.51133997  0.02610205  0.63670101
   0.39495771  0.30840227  0.80353046
   0.89495771  0.30840227  0.80353046
   0.99990440  0.00810444  0.75091963
   0.49990440  0.00810444  0.75091963
   0.26116768  0.53114194  0.53965845
   0.76116768  0.53114194  0.53965845
   0.30113413  0.44471024  0.64914239
   0.80113416  0.44471024  0.64914239
   0.30947158  0.55866839  0.94860462
   0.80947158  0.55866839  0.94860462
   0.16093726  0.32161889  0.59627728
   0.66093723  0.32161889  0.59627728
   0.26319412  0.47489264  0.86227288
   0.76319409  0.47489264  0.86227288
   0.13829178  0.19149324  0.69510568
   0.63829175  0.19149324  0.69510568
   0.25113646  0.49535809  0.74836466
   0.75113643  0.49535809  0.74836466
   0.01131361  0.96509171  0.96256450
   0.51131363  0.96509171  0.96256450
   0.04653310  0.04424798  0.85121058
   0.54653309  0.04424798  0.85121058
   0.30947158  0.05866834  0.44860468
   0.80947158  0.05866834  0.44860468
   0.16093726  0.82161886  0.09627730
   0.66093723  0.82161886  0.09627730
   0.26319412  0.97489264  0.36227285
   0.76319409  0.97489264  0.36227285
   0.13829178  0.69149322  0.19510560
   0.63829175  0.69149322  0.19510560
   0.25113646  0.99535806  0.24836461
   0.75113643  0.99535806  0.24836461
   0.01131361  0.46509174  0.46256447
   0.51131363  0.46509174  0.46256447
   0.04653310  0.54424798  0.35121067
   0.54653309  0.54424798  0.35121067
   0.16318906  0.16840683  0.50120680
   0.66318906  0.16840683  0.50120680
   0.16318906  0.66840688  0.00120686
   0.66318906  0.66840688  0.00120686
   0.41318184  0.83082111  0.50102889
   0.91318184  0.83082111  0.50102889
   0.41318184  0.33082117  0.00102889
   0.91318184  0.33082117  0.00102889
   0.14380287  0.24404060  0.34612522
   0.64380287  0.24404060  0.34612522
   0.14380287  0.74404062  0.84612525
   0.64380287  0.74404062  0.84612525