BiTiFeO                                 
           1
    10.994781   -0.000032    0.000513
    -0.000016    5.487325   -0.000243
     0.001899    0.037374   40.687106
   Bi   Ti   O    Fe
  40  24 120   8
Direct configuration=     1
   0.12540500  0.24701200  0.10288400
   0.62540501  0.24701200  0.10288400
   0.11819500  0.27398101  0.21917300
   0.61819500  0.27398101  0.21917300
   0.12540500  0.74701202  0.60288399
   0.62540501  0.74701202  0.60288399
   0.11819500  0.77398098  0.71917301
   0.61819500  0.77398098  0.71917301
   0.37540501  0.75298798  0.89711601
   0.87540501  0.75298798  0.89711601
   0.36819500  0.72601902  0.78082699
   0.86819500  0.72601902  0.78082699
   0.37540501  0.25298801  0.39711601
   0.87540501  0.25298801  0.39711601
   0.36819500  0.22601899  0.28082699
   0.86819500  0.22601899  0.28082699
   0.37283501  0.75149101  0.10287400
   0.87283498  0.75149101  0.10287400
   0.36714301  0.72705799  0.21907400
   0.86714298  0.72705799  0.21907400
   0.37283501  0.25149101  0.60287398
   0.87283498  0.25149101  0.60287398
   0.36714301  0.22705799  0.71907401
   0.86714298  0.22705799  0.71907401
   0.12283500  0.24850901  0.89712602
   0.62283498  0.24850901  0.89712602
   0.11714300  0.27294201  0.78092599
   0.61714298  0.27294201  0.78092599
   0.12283500  0.74850899  0.39712599
   0.62283498  0.74850899  0.39712599
   0.11714300  0.77294201  0.28092599
   0.61714298  0.77294201  0.28092599
   0.12377300  0.23978201  0.00014700
   0.62377298  0.23978201  0.00014700
   0.12377300  0.73978198  0.50014699
   0.62377298  0.73978198  0.50014699
   0.37377301  0.76021802  0.99985301
   0.87377298  0.76021802  0.99985301
   0.37377301  0.26021799  0.49985298
   0.87377298  0.26021799  0.49985298
   0.14763600  0.25081900  0.34803700
   0.64763600  0.25081900  0.34803700
   0.14763600  0.75081903  0.84803700
   0.64763600  0.75081903  0.84803700
   0.39703199  0.74994498  0.34845200
   0.89703202  0.74994498  0.34845200
   0.39703199  0.24994500  0.84845197
   0.89703202  0.24994500  0.84845197
   0.39763600  0.74918097  0.65196300
   0.89763600  0.74918097  0.65196300
   0.39763600  0.24918100  0.15196300
   0.89763600  0.24918100  0.15196300
   0.14703199  0.25005498  0.65154803
   0.64703202  0.25005498  0.65154803
   0.14703199  0.75005502  0.15154800
   0.64703202  0.75005502  0.15154800
   0.14618400  0.24574500  0.45122001
   0.14618400  0.74574500  0.95121998
   0.39618501  0.75425500  0.54878002
   0.39618501  0.25425500  0.04878000
   0.64618498  0.24574500  0.45122001
   0.64618498  0.74574500  0.95121998
   0.64444798  0.24708700  0.54938102
   0.64444798  0.74708700  0.04938100
   0.29980001  0.54837298  0.05445400
   0.79979998  0.54837298  0.05445400
   0.16044800  0.32101300  0.40345299
   0.66044802  0.32101300  0.40345299
   0.26315701  0.47216600  0.13687401
   0.76315701  0.47216600  0.13687401
   0.14546900  0.18768901  0.30430800
   0.64546901  0.18768901  0.30430800
   0.25084099  0.49525800  0.25120100
   0.75084102  0.49525800  0.25120100
   0.00810100  0.96618199  0.03841900
   0.50810099  0.96618199  0.03841900
   0.05275800  0.05470400  0.14992800
   0.55275798  0.05470400  0.14992800
   0.29980001  0.04837300  0.55445403
   0.79979998  0.04837300  0.55445403
   0.16044800  0.82101297  0.90345299
   0.66044802  0.82101297  0.90345299
   0.26315701  0.97216600  0.63687402
   0.76315701  0.97216600  0.63687402
   0.14546900  0.68768799  0.80430800
   0.64546901  0.68768799  0.80430800
   0.25084099  0.99525797  0.75120097
   0.75084102  0.99525797  0.75120097
   0.00810100  0.46618199  0.53841901
   0.50810099  0.46618199  0.53841901
   0.05275800  0.55470401  0.64992797
   0.55275798  0.55470401  0.64992797
   0.04980000  0.45162699  0.94554597
   0.54979998  0.45162699  0.94554597
   0.41044802  0.67898703  0.59654701
   0.91044802  0.67898703  0.59654701
   0.01315700  0.52783400  0.86312598
   0.51315701  0.52783400  0.86312598
   0.39546901  0.81231201  0.69569200
   0.89546901  0.81231201  0.69569200
   0.00084100  0.50474203  0.74879903
   0.50084102  0.50474203  0.74879903
   0.25810099  0.03381800  0.96158099
   0.75810099  0.03381800  0.96158099
   0.30275801  0.94529599  0.85007203
   0.80275798  0.94529599  0.85007203
   0.04980000  0.95162702  0.44554600
   0.54979998  0.95162702  0.44554600
   0.41044802  0.17898700  0.09654700
   0.91044802  0.17898700  0.09654700
   0.01315700  0.02783400  0.36312601
   0.51315701  0.02783400  0.36312601
   0.39546901  0.31231201  0.19569200
   0.89546901  0.31231201  0.19569200
   0.00084100  0.00474200  0.24879900
   0.50084102  0.00474200  0.24879900
   0.25810099  0.53381801  0.46158099
   0.75810099  0.53381801  0.46158099
   0.30275801  0.44529599  0.35007200
   0.80275798  0.44529599  0.35007200
   0.05030400  0.44732001  0.05424400
   0.55030400  0.44732001  0.05424400
   0.41297299  0.67787600  0.40299299
   0.91297299  0.67787600  0.40299299
   0.01283000  0.52564299  0.13704200
   0.51283002  0.52564299  0.13704200
   0.39678100  0.81359398  0.30456999
   0.89678103  0.81359398  0.30456999
   0.00084700  0.50478500  0.25114101
   0.50084698  0.50478500  0.25114101
   0.25856200  0.03727600  0.03879400
   0.75856203  0.03727600  0.03879400
   0.30316600  0.94468802  0.15010300
   0.80316597  0.94468802  0.15010300
   0.05030400  0.94731998  0.55424398
   0.55030400  0.94731998  0.55424398
   0.41297299  0.17787600  0.90299302
   0.91297299  0.17787600  0.90299302
   0.01283000  0.02564300  0.63704199
   0.51283002  0.02564300  0.63704199
   0.39678100  0.31359401  0.80457002
   0.89678103  0.31359401  0.80457002
   0.00084700  0.00478500  0.75114101
   0.50084698  0.00478500  0.75114101
   0.25856200  0.53727603  0.53879398
   0.75856203  0.53727603  0.53879398
   0.30316600  0.44468799  0.65010297
   0.80316597  0.44468799  0.65010297
   0.30030400  0.55268002  0.94575602
   0.80030400  0.55268002  0.94575602
   0.16297300  0.32212400  0.59700698
   0.66297299  0.32212400  0.59700698
   0.26282999  0.47435701  0.86295801
   0.76283002  0.47435701  0.86295801
   0.14678100  0.18640600  0.69542998
   0.64678103  0.18640600  0.69542998
   0.25084701  0.49521601  0.74885899
   0.75084698  0.49521601  0.74885899
   0.00856200  0.96272397  0.96120602
   0.50856203  0.96272397  0.96120602
   0.05316600  0.05531200  0.84989703
   0.55316502  0.05531200  0.84989703
   0.30030400  0.05268000  0.44575599
   0.80030400  0.05268000  0.44575599
   0.16297300  0.82212400  0.09700700
   0.66297299  0.82212400  0.09700700
   0.26282999  0.97435701  0.36295801
   0.76283002  0.97435701  0.36295801
   0.14678100  0.68640602  0.19543000
   0.64678103  0.68640602  0.19543000
   0.25084701  0.99521500  0.24885900
   0.75084698  0.99521500  0.24885900
   0.00856200  0.46272400  0.46120599
   0.50856203  0.46272400  0.46120599
   0.05316600  0.55531198  0.34989700
   0.55316502  0.55531198  0.34989700
   0.16131300  0.16511400  0.49987301
   0.66131300  0.16511400  0.49987301
   0.16131300  0.66511500  0.99987298
   0.66131300  0.66511500  0.99987298
   0.41131300  0.83488500  0.50012702
   0.91131300  0.83488500  0.50012702
   0.41131300  0.33488601  0.00012700
   0.91131300  0.33488601  0.00012700
   0.39444801  0.75291300  0.45061901
   0.39444801  0.25291300  0.95061898
   0.14444800  0.24708700  0.54938102
   0.14444800  0.74708700  0.04938100
   0.89444798  0.75291300  0.45061901
   0.89444798  0.25291300  0.95061898
   0.89618498  0.75425500  0.54878002
   0.89618498  0.25425500  0.04878000
BiTiFeO                                 
           1
    11.007121   -0.000543    0.000672
    -0.000271    5.493047   -0.000613
     0.002489    0.034673   40.716282
   Bi   Ti   O    Fe
  40  24 120   8
Direct configuration=     2
   0.12251270  0.24740228  0.10216423
   0.62694996  0.24808097  0.10359226
   0.11797490  0.27405264  0.21911170
   0.61828805  0.27380670  0.21924042
   0.12251270  0.74740230  0.60216422
   0.62694996  0.74808098  0.60359226
   0.11797490  0.77405261  0.71911171
   0.61828805  0.77380667  0.71924044
   0.37512642  0.75301467  0.89709095
   0.87570013  0.75298684  0.89716290
   0.36805852  0.72601835  0.78083398
   0.86824040  0.72598533  0.78081938
   0.37512642  0.25301470  0.39709095
   0.87570013  0.25298687  0.39716290
   0.36805852  0.22601832  0.28083398
   0.86824040  0.22598530  0.28081938
   0.37055409  0.75139614  0.10315643
   0.87678651  0.75260991  0.10257701
   0.36684174  0.72713585  0.21909690
   0.86739390  0.72685423  0.21905384
   0.37055409  0.25139614  0.60315641
   0.87678651  0.25260991  0.60257699
   0.36684174  0.22713585  0.71909692
   0.86739390  0.22685423  0.71905385
   0.12267408  0.24856249  0.89721500
   0.62299898  0.24850514  0.89706297
   0.11705212  0.27292974  0.78092292
   0.61713967  0.27296713  0.78093638
   0.12267408  0.74856247  0.39721497
   0.62299898  0.74850513  0.39706294
   0.11705212  0.77292974  0.28092292
   0.61713967  0.77296713  0.28093638
   0.12001676  0.24050888  0.00081193
   0.62635702  0.23844633 -0.00052712
   0.12001676  0.74050885  0.50081192
   0.62635702  0.73844630  0.49947287
   0.37069218  0.75915826  0.99937171
   0.87801946  0.76012726  1.00030581
   0.37069218  0.25915823  0.49937168
   0.87801946  0.26012723  0.50030578
   0.14755990  0.25090415  0.34808228
   0.64771466  0.25072892  0.34801144
   0.14755990  0.75090418  0.84808228
   0.64771466  0.75072895  0.84801144
   0.39693806  0.74997416  0.34845214
   0.89714438  0.74989154  0.34850051
   0.39693806  0.24997418  0.84845211
   0.89714438  0.24989156  0.84850048
   0.39664747  0.74939448  0.65207960
   0.89854816  0.74843059  0.65140146
   0.39664747  0.24939451  0.15207960
   0.89854816  0.24843062  0.15140146
   0.14623194  0.25040447  0.65139551
   0.64794305  0.24923303  0.65212544
   0.14623194  0.75040450  0.15139548
   0.64794305  0.74923306  0.15212541
   0.14527903  0.24584166  0.45138999
   0.14527903  0.74584166  0.95138996
   0.39036640  0.75513490  0.54875620
   0.39036640  0.25513490  0.04875618
   0.64715286  0.24647743  0.45057600
   0.64715286  0.74647743  0.95057597
   0.65140719  0.24812735  0.54918478
   0.65140719  0.74812735  0.04918476
   0.30197533  0.54608854  0.05441243
   0.79555710  0.55473206  0.05442066
   0.16059927  0.32105314  0.40338260
   0.66016801  0.32093127  0.40358722
   0.26427033  0.47277687  0.13694424
   0.76158054  0.47250216  0.13685593
   0.14547392  0.18762361  0.30429797
   0.64542740  0.18765990  0.30432147
   0.25090543  0.49529050  0.25122093
   0.75067324  0.49523667  0.25120557
   0.00880526  0.96360175  0.03810867
   0.50904716  0.96472964  0.03870179
   0.05279325  0.05391238  0.15012765
   0.55314895  0.05468953  0.14972092
   0.30197533  0.04608856  0.55441246
   0.79555710  0.05473208  0.55442069
   0.16059927  0.82105311  0.90338260
   0.66016801  0.82093124  0.90358722
   0.26427033  0.97277687  0.63694426
   0.76158054  0.97250216  0.63685594
   0.14547392  0.68762259  0.80429797
   0.64542740  0.68765889  0.80432147
   0.25090543  0.99529048  0.75122090
   0.75067324  0.99523664  0.75120554
   0.00880526  0.46360175  0.53810868
   0.50904716  0.46472964  0.53870180
   0.05279325  0.55391239  0.65012762
   0.55314895  0.55468954  0.64972089
   0.05003733  0.45200624  0.94539931
   0.54988111  0.45185680  0.94569597
   0.41120860  0.67954329  0.59628018
   0.91058612  0.67724740  0.59700748
   0.01310787  0.52792909  0.86311583
   0.51317338  0.52781514  0.86313389
   0.39559363  0.81216753  0.69561982
   0.89543755  0.81277189  0.69584820
   0.00079490  0.50471202  0.74879778
   0.50087004  0.50481459  0.74876939
   0.25913136  0.03324990  0.96151792
   0.75654191  0.03361293  0.96159580
   0.30289048  0.94536942  0.85008456
   0.80269259  0.94521548  0.85008032
   0.05003733  0.95200627  0.44539934
   0.54988111  0.95185683  0.44569600
   0.41120860  0.17954326  0.09628017
   0.91058612  0.17724737  0.09700747
   0.01310787  0.02792909  0.36311586
   0.51317338  0.02781514  0.36313392
   0.39559363  0.31216753  0.19561982
   0.89543755  0.31277189  0.19584820
   0.00079490  0.00471199  0.24879775
   0.50087004  0.00481457  0.24876936
   0.25913136  0.53324991  0.46151792
   0.75654191  0.53361294  0.46159580
   0.30289048  0.44536942  0.35008453
   0.80269259  0.44521548  0.35008029
   0.05190780  0.44817462  0.05439174
   0.55057373  0.44998890  0.05423150
   0.41308150  0.67797358  0.40304559
   0.91294884  0.67766441  0.40291682
   0.01289981  0.52675016  0.13712969
   0.51325614  0.52557282  0.13689309
   0.39681482  0.81362728  0.30457659
   0.89677528  0.81367904  0.30456186
   0.00079893  0.50490183  0.25116820
   0.50087509  0.50476972  0.25113780
   0.26118595  0.03872433  0.03889657
   0.75412695  0.03176051  0.03877379
   0.30391954  0.94516392  0.15005200
   0.80201450  0.94345018  0.15013076
   0.05190780  0.94817459  0.55439172
   0.55057373  0.94998887  0.55423148
   0.41308150  0.17797358  0.90304562
   0.91294884  0.17766441  0.90291684
   0.01289981  0.02675017  0.63712967
   0.51325614  0.02557283  0.63689308
   0.39681482  0.31362731  0.80457662
   0.89677528  0.31367907  0.80456189
   0.00079893  0.00490183  0.75116820
   0.50087509  0.00476972  0.75113780
   0.26118595  0.53872436  0.53889655
   0.75412695  0.53176054  0.53877377
   0.30391954  0.44516389  0.65005197
   0.80201450  0.44345015  0.65013073
   0.30100764  0.55224720  0.94582629
   0.79928822  0.55366125  0.94570813
   0.16399738  0.32172417  0.59716682
   0.66087003  0.32123792  0.59658160
   0.26301335  0.47437834  0.86295304
   0.76274811  0.47432760  0.86295910
   0.14690327  0.18616767  0.69550795
   0.64659752  0.18675409  0.69525699
   0.25090664  0.49512397  0.74884701
   0.75068313  0.49525757  0.74884492
   0.00883753  0.96177759  0.96106212
   0.50883673  0.96292080  0.96136948
   0.05312553  0.05523392  0.84987953
   0.55319005  0.05532584  0.84992127
   0.30100764  0.05224719  0.44582626
   0.79928822  0.05366124  0.44570810
   0.16399738  0.82172417  0.09716684
   0.66087003  0.82123792  0.09658162
   0.26301335  0.97437834  0.36295304
   0.76274811  0.97432760  0.36295910
   0.14690327  0.68616768  0.19550797
   0.64659752  0.68675410  0.19525701
   0.25090664  0.99512295  0.24884702
   0.75068313  0.99525656  0.24884494
   0.00883753  0.46177762  0.46106209
   0.50883673  0.46292083  0.46136945
   0.05312553  0.55523390  0.34987950
   0.55319005  0.55532581  0.34992124
   0.16259738  0.16602136  0.49967380
   0.65949144  0.16501078  0.50046231
   0.16259738  0.66602236  0.99967377
   0.65949144  0.66501178  1.00046228
   0.41183676  0.83444056  0.50038710
   0.91143041  0.83660863  0.49964036
   0.41183676  0.33444158  0.00038709
   0.91143041  0.33660964 -0.00035965
   0.39380985  0.75279185  0.45049065
   0.39380985  0.25279185  0.95049062
   0.14117435  0.24607367  0.54934523
   0.14117435  0.74607367  0.04934521
   0.89507549  0.75339006  0.45104803
   0.89507549  0.25339006  0.95104800
   0.89872356  0.75309437  0.54895313
   0.89872356  0.25309437  0.04895311
BiTiFeO                                 
           1
    10.999546   -0.000363    0.000334
    -0.000181    5.488242   -0.001085
     0.001240    0.031142   40.667281
   Bi   Ti   O    Fe
  40  24 120   8
Direct configuration=     3
   0.12297212  0.24732654  0.10220648
   0.62613739  0.24846173  0.10342860
   0.11789761  0.27406049  0.21908213
   0.61826180  0.27350183  0.21921986
   0.12297212  0.74732656  0.60220647
   0.62613739  0.74846174  0.60342859
   0.11789761  0.77406046  0.71908214
   0.61826180  0.77350180  0.71921987
   0.37518598  0.75304418  0.89714069
   0.87582695  0.75293087  0.89713041
   0.36804101  0.72608750  0.78084825
   0.86824866  0.72600991  0.78082582
   0.37518598  0.25304421  0.39714069
   0.87582695  0.25293090  0.39713041
   0.36804101  0.22608747  0.28084825
   0.86824866  0.22600988  0.28082582
   0.37173160  0.75166336  0.10308907
   0.87620414  0.75275846  0.10269061
   0.36680349  0.72714882  0.21905715
   0.86753721  0.72670834  0.21904361
   0.37173160  0.25166336  0.60308905
   0.87620414  0.25275846  0.60269059
   0.36680349  0.22714882  0.71905716
   0.86753721  0.22670834  0.71904363
   0.12282037  0.24845696  0.89719523
   0.62287674  0.24879701  0.89710566
   0.11708107  0.27289005  0.78094343
   0.61711520  0.27287346  0.78095085
   0.12282037  0.74845695  0.39719520
   0.62287674  0.74879700  0.39710563
   0.11708107  0.77289005  0.28094343
   0.61711520  0.77287346  0.28095085
   0.12027831  0.24061416  0.00078168
   0.62527673  0.23847957 -0.00039688
   0.12027831  0.74061413  0.50078167
   0.62527673  0.73847954  0.49960311
   0.37205696  0.75916826  0.99940543
   0.87750755  0.75984870  1.00022570
   0.37205696  0.25916823  0.49940540
   0.87750755  0.25984867  0.50022567
   0.14765082  0.25092627  0.34807090
   0.64763308  0.25071026  0.34801372
   0.14765082  0.75092629  0.84807090
   0.64763308  0.75071029  0.84801372
   0.39698220  0.74994771  0.34848694
   0.89711377  0.74989087  0.34848612
   0.39698220  0.24994772  0.84848691
   0.89711377  0.24989088  0.84848609
   0.39729991  0.74940666  0.65182697
   0.89772281  0.74855042  0.65174751
   0.39729991  0.24940669  0.15182697
   0.89772281  0.24855045  0.15174751
   0.14711210  0.25035222  0.65158800
   0.64726949  0.24962905  0.65166551
   0.14711210  0.75035225  0.15158797
   0.64726949  0.74962908  0.15166548
   0.14618866  0.24600322  0.45117618
   0.14618866  0.74600322  0.95117615
   0.39426618  0.75449278  0.54876623
   0.39426618  0.25449278  0.04876621
   0.64640923  0.24629591  0.45090793
   0.64640923  0.74629591  0.95090790
   0.64760526  0.24789227  0.54913712
   0.64760526  0.74789227  0.04913710
   0.30027804  0.54915839  0.05442233
   0.79826351  0.55130902  0.05444906
   0.16049448  0.32096482  0.40342401
   0.66017604  0.32106070  0.40343407
   0.26356395  0.47307642  0.13694030
   0.76243842  0.47220038  0.13689859
   0.14545654  0.18763836  0.30429975
   0.64541024  0.18765934  0.30429319
   0.25084691  0.49524052  0.25123608
   0.75065929  0.49535784  0.25121318
   0.00854010  0.96411981  0.03812056
   0.50899900  0.96457329  0.03868120
   0.05264436  0.05413272  0.15012145
   0.55310751  0.05457978  0.14977338
   0.30027804  0.04915841  0.55442236
   0.79826351  0.05130903  0.55444909
   0.16049448  0.82096479  0.90342401
   0.66017604  0.82106067  0.90343407
   0.26356395  0.97307642  0.63694031
   0.76243842  0.97220038  0.63689860
   0.14545654  0.68763735  0.80429975
   0.64541024  0.68765833  0.80429319
   0.25084691  0.99524049  0.75123605
   0.75065929  0.99535781  0.75121315
   0.00854010  0.46411981  0.53812057
   0.50899900  0.46457329  0.53868120
   0.05264436  0.55413273  0.65012142
   0.55310751  0.55457979  0.64977335
   0.04985375  0.45183446  0.94542590
   0.54999969  0.45192336  0.94565127
   0.41103308  0.67938639  0.59637763
   0.91086432  0.67732396  0.59695388
   0.01306241  0.52798354  0.86312521
   0.51323718  0.52786120  0.86313408
   0.39557106  0.81238661  0.69578969
   0.89553634  0.81245613  0.69554727
   0.00077445  0.50470059  0.74879234
   0.50088659  0.50481897  0.74876316
   0.25857529  0.03283850  0.96152089
   0.75718964  0.03405025  0.96153668
   0.30283088  0.94530297  0.85007026
   0.80272422  0.94518488  0.85009976
   0.04985375  0.95183449  0.44542593
   0.54999969  0.95192339  0.44565130
   0.41103308  0.17938636  0.09637762
   0.91086432  0.17732393  0.09695387
   0.01306241  0.02798354  0.36312524
   0.51323718  0.02786120  0.36313411
   0.39557106  0.31238661  0.19578969
   0.89553634  0.31245613  0.19554727
   0.00077445  0.00470057  0.24879231
   0.50088659  0.00481894  0.24876313
   0.25857529  0.53283851  0.46152089
   0.75718964  0.53405026  0.46153668
   0.30283088  0.44530297  0.35007023
   0.80272422  0.44518488  0.35009973
   0.05141059  0.44732254  0.05435033
   0.55061885  0.45028879  0.05429884
   0.41310294  0.67795720  0.40299063
   0.91295869  0.67772269  0.40299148
   0.01270605  0.52667398  0.13707742
   0.51331902  0.52558868  0.13693771
   0.39681973  0.81365785  0.30454569
   0.89676559  0.81367252  0.30456691
   0.00077896  0.50493810  0.25117994
   0.50087462  0.50483209  0.25114963
   0.25914184  0.03613752  0.03886945
   0.75603414  0.03470193  0.03872136
   0.30338631  0.94454643  0.15012260
   0.80274391  0.94415705  0.15004717
   0.05141059  0.94732251  0.55435031
   0.55061885  0.95028876  0.55429882
   0.41310294  0.17795720  0.90299066
   0.91295869  0.17772269  0.90299151
   0.01270605  0.02667399  0.63707741
   0.51331902  0.02558869  0.63693769
   0.39681973  0.31365788  0.80454572
   0.89676559  0.31367255  0.80456694
   0.00077896  0.00493810  0.75117994
   0.50087462  0.00483209  0.75114963
   0.25914184  0.53613755  0.53886943
   0.75603414  0.53470196  0.53872134
   0.30338631  0.44454640  0.65012257
   0.80274391  0.44415702  0.65004714
   0.30063473  0.55285536  0.94582501
   0.79971161  0.55292417  0.94570460
   0.16332429  0.32174008  0.59707903
   0.66125594  0.32125907  0.59671598
   0.26293721  0.47438272  0.86295348
   0.76279460  0.47439675  0.86296406
   0.14685831  0.18629541  0.69541404
   0.64655132  0.18630038  0.69567055
   0.25086442  0.49512681  0.74884668
   0.75063432  0.49525013  0.74884037
   0.00855236  0.96214711  0.96109047
   0.50901585  0.96271532  0.96132537
   0.05311529  0.05528359  0.84987771
   0.55321989  0.05522396  0.84991849
   0.30063473  0.05285534  0.44582498
   0.79971161  0.05292415  0.44570457
   0.16332429  0.82174008  0.09707905
   0.66125594  0.82125907  0.09671600
   0.26293721  0.97438272  0.36295348
   0.76279460  0.97439675  0.36296406
   0.14685831  0.68629542  0.19541406
   0.64655132  0.68630040  0.19567056
   0.25086442  0.99512580  0.24884669
   0.75063432  0.99524911  0.24884038
   0.00855236  0.46214714  0.46109044
   0.50901585  0.46271535  0.46132534
   0.05311529  0.55528357  0.34987768
   0.55321989  0.55522394  0.34991846
   0.16198761  0.16578868  0.49978487
   0.65996456  0.16517164  0.50020105
   0.16198761  0.66578968  0.99978484
   0.65996456  0.66517264  1.00020102
   0.41179664  0.83465616  0.50026963
   0.91152058  0.83659528  0.49977600
   0.41179664  0.33465718  0.00026961
   0.91152058  0.33659629 -0.00022401
   0.39417478  0.75259856  0.45063877
   0.39417478  0.25259856  0.95063874
   0.14258445  0.24630279  0.54940145
   0.14258445  0.74630279  0.04940144
   0.89458423  0.75351047  0.45092109
   0.89458423  0.25351047  0.95092106
   0.89713002  0.75322927  0.54899041
   0.89713002  0.25322927  0.04899039
BiTiFeO                                 
           1
    11.003123   -0.000207    0.000274
    -0.000103    5.490161   -0.001060
     0.001018    0.031348   40.695053
   Bi   Ti   O    Fe
  40  24 120   8
Direct configuration=     4
   0.12259288  0.24728660  0.10215039
   0.62622672  0.24894613  0.10346483
   0.11787704  0.27402126  0.21908949
   0.61815373  0.27349336  0.21923724
   0.12259288  0.74728662  0.60215038
   0.62622672  0.74894614  0.60346483
   0.11787704  0.77402123  0.71908951
   0.61815373  0.77349333  0.71923725
   0.37523896  0.75312268  0.89710828
   0.87587422  0.75292547  0.89712310
   0.36806343  0.72608854  0.78081509
   0.86810824  0.72594106  0.78080875
   0.37523896  0.25312271  0.39710828
   0.87587422  0.25292550  0.39712310
   0.36806343  0.22608851  0.28081509
   0.86810824  0.22594103  0.28080875
   0.37165760  0.75168489  0.10305694
   0.87663302  0.75293761  0.10275772
   0.36688720  0.72697628  0.21907369
   0.86737954  0.72660195  0.21907056
   0.37165760  0.25168489  0.60305692
   0.87663302  0.25293761  0.60275769
   0.36688720  0.22697628  0.71907370
   0.86737954  0.22660195  0.71907057
   0.12268098  0.24849528  0.89720278
   0.62293075  0.24893017  0.89708054
   0.11710650  0.27297498  0.78093896
   0.61702089  0.27281896  0.78091393
   0.12268098  0.74849526  0.39720275
   0.62293075  0.74893016  0.39708051
   0.11710650  0.77297498  0.28093896
   0.61702089  0.77281896  0.28091393
   0.11973134  0.24080845  0.00093399
   0.62540620  0.23822782 -0.00053258
   0.11973134  0.74080842  0.50093397
   0.62540620  0.73822779  0.49946740
   0.37184780  0.75889668  0.99935115
   0.87798059  0.75961928  1.00025212
   0.37184780  0.25889665  0.49935112
   0.87798059  0.25961925  0.50025209
   0.14764603  0.25093470  0.34803554
   0.64768421  0.25076216  0.34800863
   0.14764603  0.75093473  0.84803554
   0.64768421  0.75076219  0.84800863
   0.39708757  0.74997065  0.34843993
   0.89702248  0.74982431  0.34848970
   0.39708757  0.24997066  0.84843990
   0.89702248  0.24982433  0.84848967
   0.39703428  0.74977435  0.65199212
   0.89778567  0.74834628  0.65169182
   0.39703428  0.24977438  0.15199212
   0.89778567  0.24834631  0.15169182
   0.14712785  0.25077181  0.65155032
   0.64752387  0.24920148  0.65190450
   0.14712785  0.75077184  0.15155029
   0.64752387  0.74920151  0.15190447
   0.14619630  0.24609473  0.45114444
   0.14619630  0.74609473  0.95114441
   0.39442017  0.75471479  0.54870723
   0.39442017  0.25471479  0.04870720
   0.64678657  0.24619113  0.45095305
   0.64678657  0.74619113  0.95095302
   0.64767385  0.24779421  0.54908963
   0.64767385  0.74779421  0.04908961
   0.30030712  0.54887388  0.05439635
   0.79892243  0.55095758  0.05443506
   0.16049836  0.32089963  0.40340415
   0.66006186  0.32110556  0.40342330
   0.26361817  0.47300683  0.13693336
   0.76251420  0.47234155  0.13690624
   0.14544258  0.18764686  0.30433693
   0.64539664  0.18767813  0.30429734
   0.25072192  0.49520929  0.25124066
   0.75077439  0.49534027  0.25122807
   0.00824177  0.96411413  0.03806399
   0.50885167  0.96477181  0.03873880
   0.05255232  0.05400637  0.15016299
   0.55307376  0.05460195  0.14974382
   0.30030712  0.04887390  0.55439638
   0.79892243  0.05095760  0.55443509
   0.16049836  0.82089960  0.90340415
   0.66006186  0.82110553  0.90342330
   0.26361817  0.97300683  0.63693338
   0.76251420  0.97234155  0.63690625
   0.14544258  0.68764585  0.80433693
   0.64539664  0.68767712  0.80429734
   0.25072192  0.99520926  0.75124063
   0.75077439  0.99534024  0.75122804
   0.00824177  0.46411413  0.53806400
   0.50885167  0.46477181  0.53873881
   0.05255232  0.55400638  0.65016296
   0.55307376  0.55460196  0.64974379
   0.04989690  0.45212812  0.94539649
   0.54994006  0.45181304  0.94567748
   0.41114335  0.67962623  0.59638781
   0.91126573  0.67693088  0.59695182
   0.01311609  0.52807359  0.86313594
   0.51319486  0.52783647  0.86315164
   0.39562441  0.81210217  0.69558236
   0.89560462  0.81263825  0.69553866
   0.00077217  0.50473536  0.74877522
   0.50084005  0.50479716  0.74877658
   0.25861728  0.03261016  0.96150404
   0.75716306  0.03438953  0.96151255
   0.30282040  0.94525888  0.85008267
   0.80276976  0.94520201  0.85011957
   0.04989690  0.95212815  0.44539652
   0.54994006  0.95181307  0.44567751
   0.41114335  0.17962620  0.09638781
   0.91126573  0.17693085  0.09695181
   0.01311609  0.02807359  0.36313597
   0.51319486  0.02783648  0.36315167
   0.39562441  0.31210217  0.19558236
   0.89560462  0.31263825  0.19553866
   0.00077217  0.00473533  0.24877519
   0.50084005  0.00479714  0.24877655
   0.25861728  0.53261016  0.46150404
   0.75716306  0.53438954  0.46151255
   0.30282040  0.44525888  0.35008264
   0.80276976  0.44520201  0.35011954
   0.05113475  0.44634123  0.05431054
   0.55032251  0.45062418  0.05437233
   0.41312772  0.67800482  0.40301682
   0.91304491  0.67768250  0.40303001
   0.01258695  0.52698005  0.13703743
   0.51340459  0.52535249  0.13692864
   0.39682816  0.81360975  0.30460065
   0.89678568  0.81368686  0.30459158
   0.00076192  0.50488583  0.25117206
   0.50083478  0.50485639  0.25117101
   0.25919685  0.03621068  0.03892678
   0.75641639  0.03531362  0.03868679
   0.30355621  0.94489781  0.15016384
   0.80265701  0.94376103  0.14995312
   0.05113475  0.94634120  0.55431052
   0.55032251  0.95062415  0.55437231
   0.41312772  0.17800482  0.90301685
   0.91304491  0.17768250  0.90303004
   0.01258695  0.02698006  0.63703741
   0.51340459  0.02535250  0.63692863
   0.39682816  0.31360978  0.80460068
   0.89678568  0.31368689  0.80459161
   0.00076192  0.00488582  0.75117206
   0.50083478  0.00485639  0.75117101
   0.25919685  0.53621071  0.53892676
   0.75641639  0.53531365  0.53868677
   0.30355621  0.44489778  0.65016381
   0.80265701  0.44376100  0.64995309
   0.30077357  0.55286262  0.94586035
   0.79956994  0.55284287  0.94568950
   0.16297949  0.32179236  0.59706157
   0.66108090  0.32107700  0.59671353
   0.26293355  0.47445735  0.86296723
   0.76283760  0.47435638  0.86297067
   0.14685338  0.18609168  0.69548665
   0.64649260  0.18672267  0.69549585
   0.25074552  0.49515368  0.74884335
   0.75073511  0.49521699  0.74883600
   0.00849647  0.96192592  0.96108751
   0.50908215  0.96302708  0.96133832
   0.05314825  0.05520351  0.84988261
   0.55317882  0.05527468  0.84992829
   0.30077357  0.05286260  0.44586032
   0.79956994  0.05284285  0.44568947
   0.16297949  0.82179236  0.09706159
   0.66108090  0.82107700  0.09671356
   0.26293355  0.97445735  0.36296723
   0.76283760  0.97435638  0.36297067
   0.14685338  0.68609169  0.19548666
   0.64649260  0.68672268  0.19549587
   0.25074552  0.99515267  0.24884337
   0.75073511  0.99521598  0.24883601
   0.00849647  0.46192595  0.46108748
   0.50908215  0.46302711  0.46133829
   0.05314825  0.55520349  0.34988258
   0.55317882  0.55527465  0.34992826
   0.16180546  0.16569470  0.49977246
   0.65991829  0.16520064  0.50013237
   0.16180546  0.66569570  0.99977243
   0.65991829  0.66520164  1.00013234
   0.41196389  0.83439876  0.50028305
   0.91168146  0.83695116  0.49983005
   0.41196389  0.33439978  0.00028303
   0.91168146  0.33695217 -0.00016997
   0.39411278  0.75233566  0.45069023
   0.39411278  0.25233566  0.95069020
   0.14339406  0.24639387  0.54943017
   0.14339406  0.74639387  0.04943015