       N       E                     dE             d eps       ncg     rms          rms(c)
DAV:   1     0.551385745560E+04    0.55139E+04   -0.19748E+05 10752   0.125E+03
DAV:   2     0.490868801896E+03   -0.50230E+04   -0.46237E+04 11124   0.349E+02
DAV:   3    -0.720532913079E+03   -0.12114E+04   -0.11736E+04 12792   0.178E+02
DAV:   4    -0.824541867842E+03   -0.10401E+03   -0.10256E+03 16032   0.594E+01
DAV:   5    -0.828331598259E+03   -0.37897E+01   -0.37466E+01 16980   0.128E+01
DAV:   6    -0.828499419814E+03   -0.16782E+00   -0.16665E+00 17028   0.238E+00
DAV:   7    -0.828507848736E+03   -0.84289E-02   -0.83987E-02 17040   0.542E-01
DAV:   8    -0.828508389056E+03   -0.54032E-03   -0.53948E-03 14100   0.120E-01
DAV:   9    -0.828508426978E+03   -0.37922E-04   -0.37868E-04 10008   0.363E-02
DAV:  10    -0.828508431058E+03   -0.40806E-05   -0.40692E-05  8880   0.167E-02
DAV:  11    -0.828508432577E+03   -0.15183E-05   -0.15122E-05  8208   0.115E-02
DAV:  12    -0.828508433455E+03   -0.87838E-06   -0.87677E-06  8016   0.867E-03    0.114E+02
DAV:  13    -0.632082385690E+03    0.19643E+03   -0.12691E+03 16020   0.834E+01    0.904E+01
DAV:  14    -0.729468148875E+03   -0.97386E+02   -0.25481E+03 18084   0.135E+02    0.125E+02
DAV:  15    -0.668210907555E+03    0.61257E+02   -0.70419E+02 16740   0.851E+01    0.516E+01
DAV:  16    -0.659231953296E+03    0.89790E+01   -0.13927E+02 16836   0.591E+01    0.546E+01
DAV:  17    -0.650665492314E+03    0.85665E+01   -0.60944E+01 15468   0.159E+01    0.416E+01
DAV:  18    -0.643989884619E+03    0.66756E+01   -0.56862E+01 15816   0.191E+01    0.600E+01
DAV:  19    -0.646553667750E+03   -0.25638E+01   -0.15712E+01 16008   0.216E+01    0.336E+01
DAV:  20    -0.629342267052E+03    0.17211E+02   -0.30833E+01 16836   0.148E+01    0.169E+01
DAV:  21    -0.628751539922E+03    0.59073E+00   -0.97016E+00 16068   0.718E+00    0.117E+01
DAV:  22    -0.628104444126E+03    0.64710E+00   -0.17617E+00 16020   0.422E+00    0.995E+00
DAV:  23    -0.624798489260E+03    0.33060E+01   -0.15882E+00 19104   0.861E+00    0.696E+00
DAV:  24    -0.622647083601E+03    0.21514E+01   -0.41805E+00 17220   0.765E+00    0.571E+00
DAV:  25    -0.622491341828E+03    0.15574E+00   -0.34773E+00 15048   0.326E+00    0.495E+00
DAV:  26    -0.622470679193E+03    0.20663E-01   -0.24449E-01 14460   0.100E+00    0.492E+00
DAV:  27    -0.622265589327E+03    0.20509E+00   -0.75430E-02 15384   0.909E-01    0.462E+00
DAV:  28    -0.621838809061E+03    0.42678E+00   -0.38564E-01 16872   0.239E+00    0.368E+00
DAV:  29    -0.621714078846E+03    0.12473E+00   -0.25953E-01 16164   0.148E+00    0.325E+00
DAV:  30    -0.621718729612E+03   -0.46508E-02   -0.98048E-02 14244   0.632E-01    0.283E+00
DAV:  31    -0.621555073437E+03    0.16366E+00   -0.86836E-02 18408   0.175E+00    0.238E+00
DAV:  32    -0.621529379571E+03    0.25694E-01   -0.91457E-02 16140   0.835E-01    0.190E+00
DAV:  33    -0.621534258091E+03   -0.48785E-02   -0.15140E-02 15720   0.363E-01    0.182E+00
DAV:  34    -0.621486954272E+03    0.47304E-01   -0.66233E-02 18288   0.127E+00    0.228E+00
DAV:  35    -0.621485754851E+03    0.11994E-02   -0.20295E-02 13956   0.240E-01    0.218E+00
DAV:  36    -0.621482232171E+03    0.35227E-02   -0.19676E-03 15768   0.143E-01    0.236E+00
DAV:  37    -0.621487343731E+03   -0.51116E-02   -0.35821E-03 13500   0.108E-01    0.277E+00
DAV:  38    -0.621479883459E+03    0.74603E-02   -0.17443E-02 16776   0.448E-01    0.229E+00
DAV:  39    -0.621483708709E+03   -0.38253E-02   -0.16500E-02 15552   0.223E-01    0.246E+00
DAV:  40    -0.621479736706E+03    0.39720E-02   -0.46124E-03 15096   0.120E-01    0.223E+00
DAV:  41    -0.621485938730E+03   -0.62020E-02   -0.98436E-03 17160   0.316E-01    0.267E+00
DAV:  42    -0.621487342608E+03   -0.14039E-02   -0.70506E-03 15084   0.138E-01    0.260E+00
DAV:  43    -0.621481537504E+03    0.58051E-02   -0.67875E-03 14640   0.160E-01    0.207E+00
DAV:  44    -0.621476825444E+03    0.47121E-02   -0.77824E-03 15204   0.162E-01    0.184E+00
DAV:  45    -0.621472625702E+03    0.41997E-02   -0.10605E-02 16044   0.381E-01    0.133E+00
DAV:  46    -0.621469280328E+03    0.33454E-02   -0.77765E-03 13440   0.155E-01    0.907E-01
DAV:  47    -0.621469336957E+03   -0.56629E-04   -0.12249E-03 12672   0.710E-02    0.767E-01
DAV:  48    -0.621470167416E+03   -0.83046E-03   -0.10003E-03  8616   0.981E-02    0.921E-01
DAV:  49    -0.621469585089E+03    0.58233E-03   -0.42835E-03 12672   0.188E-01    0.617E-01
DAV:  50    -0.621469028369E+03    0.55672E-03   -0.25898E-03 12216   0.870E-02    0.536E-01
DAV:  51    -0.621468911416E+03    0.11695E-03   -0.33094E-03 11136   0.897E-02    0.533E-01
DAV:  52    -0.621469360617E+03   -0.44920E-03   -0.17447E-02 15012   0.151E-01    0.711E-01
DAV:  53    -0.621469472536E+03   -0.11192E-03   -0.14754E-03 10884   0.756E-02    0.703E-01
DAV:  54    -0.621469550747E+03   -0.78212E-04   -0.60041E-05  7584   0.191E-02
   1 F= -.62146955E+03 E0= -.62141906E+03  d E =-.621470E+03  mag=    19.7500
       N       E                     dE             d eps       ncg     rms          rms(c)
DAV:   1    -0.621506492047E+03   -0.37020E-01   -0.17668E+03 10752   0.818E+01    0.194E+01
DAV:   2    -0.626552591798E+03   -0.50461E+01   -0.11622E+02 16512   0.330E+01    0.224E+01
DAV:   3    -0.625925052168E+03    0.62754E+00   -0.18778E+01 14904   0.933E+00    0.156E+01
DAV:   4    -0.624514448824E+03    0.14106E+01   -0.49463E+00 16308   0.530E+00    0.106E+01
DAV:   5    -0.624526791443E+03   -0.12343E-01   -0.35696E+00 14856   0.432E+00    0.523E+00
DAV:   6    -0.624315266604E+03    0.21152E+00   -0.91719E-01 16188   0.295E+00    0.329E+00
DAV:   7    -0.624284348373E+03    0.30918E-01   -0.89375E-01 15060   0.224E+00    0.202E+00
DAV:   8    -0.624270774114E+03    0.13574E-01   -0.14583E-01 15408   0.126E+00    0.100E+00
DAV:   9    -0.624271537367E+03   -0.76325E-03   -0.39503E-02 15036   0.405E-01    0.640E-01
DAV:  10    -0.624269755860E+03    0.17815E-02   -0.68401E-03 15672   0.253E-01    0.401E-01
DAV:  11    -0.624269224263E+03    0.53160E-03   -0.11703E-02 15996   0.236E-01    0.267E-01
DAV:  12    -0.624269496621E+03   -0.27236E-03   -0.22386E-03 15600   0.113E-01    0.136E-01
DAV:  13    -0.624269462850E+03    0.33772E-04   -0.34764E-04  9756   0.546E-02
   2 F= -.62426946E+03 E0= -.62426946E+03  d E =-.279991E+01  mag=    19.8421
       N       E                     dE             d eps       ncg     rms          rms(c)
DAV:   1    -0.627985629212E+03   -0.37161E+01   -0.18592E+02 10752   0.281E+01    0.120E+01
DAV:   2    -0.627137431159E+03    0.84820E+00   -0.15664E+01 15144   0.125E+01    0.141E+01
DAV:   3    -0.626889024478E+03    0.24841E+00   -0.39176E+00 15552   0.426E+00    0.900E+00
DAV:   4    -0.626820754503E+03    0.68270E-01   -0.18223E+00 16140   0.354E+00    0.713E+00
DAV:   5    -0.626703716248E+03    0.11704E+00   -0.50213E-01 15624   0.264E+00    0.345E+00
DAV:   6    -0.626668400622E+03    0.35316E-01   -0.42691E-01 15876   0.145E+00    0.131E+00
DAV:   7    -0.626666274785E+03    0.21258E-02   -0.95509E-02 16164   0.867E-01    0.830E-01
DAV:   8    -0.626662406356E+03    0.38684E-02   -0.19228E-02 16512   0.567E-01    0.405E-01
DAV:   9    -0.626662222669E+03    0.18369E-03   -0.87172E-03 15168   0.211E-01    0.198E-01
DAV:  10    -0.626662187794E+03    0.34875E-04   -0.25315E-03 15696   0.117E-01    0.147E-01
DAV:  11    -0.626662158522E+03    0.29272E-04   -0.90483E-04 13740   0.728E-02
   3 F= -.62666216E+03 E0= -.62666216E+03  d E =-.239270E+01  mag=    19.8971
       N       E                     dE             d eps       ncg     rms          rms(c)
DAV:   1    -0.626440474802E+03    0.22171E+00   -0.11653E+02 10752   0.210E+01    0.580E+00
DAV:   2    -0.626927788916E+03   -0.48731E+00   -0.66888E+00 14640   0.651E+00    0.716E+00
DAV:   3    -0.626849689727E+03    0.78099E-01   -0.54750E-01 14052   0.183E+00    0.492E+00
DAV:   4    -0.626808003457E+03    0.41686E-01   -0.63936E-01 14340   0.165E+00    0.287E+00
DAV:   5    -0.626787959478E+03    0.20044E-01   -0.12686E-01 14280   0.107E+00    0.135E+00
DAV:   6    -0.626778297441E+03    0.96620E-02   -0.10197E-01 15888   0.771E-01    0.796E-01
DAV:   7    -0.626777987349E+03    0.31009E-03   -0.38477E-02 14700   0.366E-01    0.330E-01
DAV:   8    -0.626777636385E+03    0.35096E-03   -0.27542E-03 15792   0.161E-01    0.201E-01
DAV:   9    -0.626777670897E+03   -0.34512E-04   -0.22810E-03 15372   0.121E-01    0.152E-01
DAV:  10    -0.626777562170E+03    0.10873E-03   -0.80389E-04 13968   0.766E-02    0.110E-01
DAV:  11    -0.626777453775E+03    0.10840E-03   -0.92562E-04 11880   0.619E-02    0.435E-02
DAV:  12    -0.626777460096E+03   -0.63209E-05   -0.10530E-04  6204   0.282E-02
   4 F= -.62677746E+03 E0= -.62677746E+03  d E =-.115302E+00  mag=    19.9348
       N       E                     dE             d eps       ncg     rms          rms(c)
DAV:   1    -0.626959540672E+03   -0.18209E+00   -0.44116E+00 10752   0.403E+00    0.149E+00
DAV:   2    -0.626969889151E+03   -0.10348E-01   -0.34190E-01 14472   0.147E+00    0.192E+00
DAV:   3    -0.626965011118E+03    0.48780E-02   -0.37275E-02 13656   0.466E-01    0.148E+00
DAV:   4    -0.626961093253E+03    0.39179E-02   -0.18677E-02 14940   0.257E-01    0.110E+00
DAV:   5    -0.626959996095E+03    0.10972E-02   -0.66023E-03 13908   0.222E-01    0.458E-01
DAV:   6    -0.626959760396E+03    0.23570E-03   -0.65611E-03 15912   0.208E-01    0.235E-01
DAV:   7    -0.626959617667E+03    0.14273E-03   -0.18516E-03 13680   0.854E-02    0.175E-01
DAV:   8    -0.626959574926E+03    0.42742E-04   -0.27115E-04  8904   0.424E-02
   5 F= -.62695957E+03 E0= -.62695957E+03  d E =-.182115E+00  mag=    19.9525
       N       E                     dE             d eps       ncg     rms          rms(c)
DAV:   1    -0.627017393207E+03   -0.57776E-01   -0.46409E+01 10752   0.136E+01    0.199E+00
DAV:   2    -0.627124711815E+03   -0.10732E+00   -0.14047E+00 14196   0.288E+00    0.181E+00
DAV:   3    -0.627120906299E+03    0.38055E-02   -0.92838E-02 15228   0.783E-01    0.105E+00
DAV:   4    -0.627115584966E+03    0.53213E-02   -0.14348E-02 16392   0.335E-01    0.756E-01
DAV:   5    -0.627112179392E+03    0.34056E-02   -0.97398E-03 14256   0.275E-01    0.343E-01
DAV:   6    -0.627112289639E+03   -0.11025E-03   -0.83853E-03 15744   0.230E-01    0.141E-01
DAV:   7    -0.627112313778E+03   -0.24139E-04   -0.15079E-03 13548   0.867E-02    0.885E-02
DAV:   8    -0.627112285029E+03    0.28749E-04   -0.14710E-04  7068   0.456E-02
   6 F= -.62711229E+03 E0= -.62711229E+03  d E =-.152710E+00  mag=    19.9651
       N       E                     dE             d eps       ncg     rms          rms(c)
DAV:   1    -0.626620989221E+03    0.49132E+00   -0.20190E+02 10752   0.280E+01    0.593E+00
DAV:   2    -0.627035246184E+03   -0.41426E+00   -0.80509E+00 14052   0.710E+00    0.633E+00
DAV:   3    -0.626966641349E+03    0.68605E-01   -0.10335E+00 14340   0.230E+00    0.443E+00
DAV:   4    -0.626899142275E+03    0.67499E-01   -0.46864E-01 15636   0.146E+00    0.306E+00
DAV:   5    -0.626872571054E+03    0.26571E-01   -0.13999E-01 14604   0.107E+00    0.119E+00
DAV:   6    -0.626871986928E+03    0.58413E-03   -0.63755E-02 15924   0.701E-01    0.511E-01
DAV:   7    -0.626872064788E+03   -0.77860E-04   -0.29935E-02 15504   0.406E-01    0.448E-01
DAV:   8    -0.626871654674E+03    0.41011E-03   -0.26696E-03 15012   0.149E-01    0.239E-01
DAV:   9    -0.626871680511E+03   -0.25836E-04   -0.25036E-03 15240   0.125E-01    0.144E-01
DAV:  10    -0.626871590115E+03    0.90396E-04   -0.73554E-04 12696   0.743E-02
   7 F= -.62687159E+03 E0= -.62687159E+03  d E =0.240695E+00  mag=    19.9767
       N       E                     dE             d eps       ncg     rms          rms(c)
DAV:   1    -0.627340415028E+03   -0.46873E+00   -0.39728E+01 10752   0.120E+01    0.314E+00
DAV:   2    -0.627398003314E+03   -0.57588E-01   -0.22751E+00 14472   0.417E+00    0.386E+00
DAV:   3    -0.627378427924E+03    0.19575E-01   -0.38487E-01 13800   0.137E+00    0.305E+00
DAV:   4    -0.627343038465E+03    0.35389E-01   -0.12807E-01 14880   0.757E-01    0.231E+00
DAV:   5    -0.627325881883E+03    0.17157E-01   -0.11869E-01 15840   0.959E-01    0.103E+00
DAV:   6    -0.627324384999E+03    0.14969E-02   -0.55457E-02 15540   0.684E-01    0.720E-01
DAV:   7    -0.627322429216E+03    0.19558E-02   -0.46430E-02 13476   0.420E-01    0.326E-01
DAV:   8    -0.627322369548E+03    0.59668E-04   -0.64722E-03 15552   0.188E-01    0.257E-01
DAV:   9    -0.627322926967E+03   -0.55742E-03   -0.35340E-03 15636   0.148E-01    0.242E-01
DAV:  10    -0.627322682522E+03    0.24445E-03   -0.78406E-04 12948   0.662E-02    0.199E-01
DAV:  11    -0.627322278915E+03    0.40361E-03   -0.25510E-03 12348   0.103E-01    0.519E-02
DAV:  12    -0.627322306916E+03   -0.28001E-04   -0.46552E-04 11244   0.483E-02
   8 F= -.62732231E+03 E0= -.62732231E+03  d E =-.450717E+00  mag=    19.9852
       N       E                     dE             d eps       ncg     rms          rms(c)
DAV:   1    -0.627319312106E+03    0.29668E-02   -0.11983E+01 10752   0.670E+00    0.127E+00
DAV:   2    -0.627348462046E+03   -0.29150E-01   -0.51604E-01 14004   0.158E+00    0.160E+00
DAV:   3    -0.627345611334E+03    0.28507E-02   -0.34703E-02 13416   0.415E-01    0.125E+00
DAV:   4    -0.627341685449E+03    0.39259E-02   -0.51803E-02 15816   0.500E-01    0.947E-01
DAV:   5    -0.627342270093E+03   -0.58464E-03   -0.19978E-02 13368   0.300E-01    0.590E-01
DAV:   6    -0.627339840555E+03    0.24295E-02   -0.61775E-03 15792   0.202E-01    0.402E-01
DAV:   7    -0.627338821006E+03    0.10195E-02   -0.88156E-03 14868   0.185E-01    0.147E-01
DAV:   8    -0.627338845310E+03   -0.24305E-04   -0.74826E-04 12624   0.658E-02
   9 F= -.62733885E+03 E0= -.62733885E+03  d E =-.165384E-01  mag=    19.9891
       N       E                     dE             d eps       ncg     rms          rms(c)
DAV:   1    -0.627363068007E+03   -0.24247E-01   -0.15202E+00 10752   0.229E+00    0.631E-01
DAV:   2    -0.627367129045E+03   -0.40610E-02   -0.87783E-02 14028   0.693E-01    0.879E-01
DAV:   3    -0.627366837243E+03    0.29180E-03   -0.78617E-03 13164   0.183E-01    0.770E-01
DAV:   4    -0.627365387482E+03    0.14498E-02   -0.35567E-03 13512   0.119E-01    0.662E-01
DAV:   5    -0.627365309967E+03    0.77515E-04   -0.11353E-02 13668   0.201E-01    0.413E-01
DAV:   6    -0.627364839614E+03    0.47035E-03   -0.27253E-03 15600   0.156E-01    0.310E-01
DAV:   7    -0.627364487442E+03    0.35217E-03   -0.22973E-03 13176   0.927E-02    0.176E-01
DAV:   8    -0.627364494634E+03   -0.71921E-05   -0.35532E-04  9480   0.415E-02
  10 F= -.62736449E+03 E0= -.62736449E+03  d E =-.256493E-01  mag=    19.9919
       N       E                     dE             d eps       ncg     rms          rms(c)
DAV:   1    -0.627372461199E+03   -0.79738E-02   -0.64216E+00 10752   0.504E+00    0.778E-01
DAV:   2    -0.627388812442E+03   -0.16351E-01   -0.19674E-01 13872   0.102E+00    0.706E-01
DAV:   3    -0.627388416704E+03    0.39574E-03   -0.13110E-02 14628   0.302E-01    0.381E-01
DAV:   4    -0.627387871771E+03    0.54493E-03   -0.25064E-03 15672   0.136E-01    0.283E-01
DAV:   5    -0.627387684871E+03    0.18690E-03   -0.12905E-03 13428   0.950E-02    0.114E-01
DAV:   6    -0.627387698613E+03   -0.13742E-04   -0.60662E-04 12984   0.690E-02
  11 F= -.62738770E+03 E0= -.62738770E+03  d E =-.232040E-01  mag=    19.9935
       N       E                     dE             d eps       ncg     rms          rms(c)
DAV:   1    -0.627390058555E+03   -0.23737E-02   -0.10819E-01 10920   0.643E-01    0.211E-01
DAV:   2    -0.627390182146E+03   -0.12359E-03   -0.64729E-03 14976   0.223E-01    0.234E-01
DAV:   3    -0.627390073000E+03    0.10915E-03   -0.11546E-03 14172   0.828E-02    0.156E-01
DAV:   4    -0.627390024785E+03    0.48215E-04   -0.35997E-04  9576   0.412E-02
  12 F= -.62739002E+03 E0= -.62739002E+03  d E =-.232617E-02  mag=    19.9945
       N       E                     dE             d eps       ncg     rms          rms(c)
DAV:   1    -0.627392144588E+03   -0.20716E-02   -0.61245E+00 10752   0.484E+00    0.711E-01
DAV:   2    -0.627407127449E+03   -0.14983E-01   -0.21157E-01 13464   0.100E+00    0.820E-01
DAV:   3    -0.627406121659E+03    0.10058E-02   -0.12325E-02 13920   0.256E-01    0.566E-01
DAV:   4    -0.627404956311E+03    0.11653E-02   -0.12156E-02 15708   0.267E-01    0.422E-01
DAV:   5    -0.627404831526E+03    0.12479E-03   -0.44886E-03 13392   0.150E-01    0.248E-01
DAV:   6    -0.627404423569E+03    0.40796E-03   -0.17155E-03 15672   0.102E-01    0.150E-01
DAV:   7    -0.627404366253E+03    0.57316E-04   -0.10889E-03 14508   0.718E-02    0.695E-02
DAV:   8    -0.627404361569E+03    0.46846E-05   -0.80609E-05  6720   0.273E-02
  13 F= -.62740436E+03 E0= -.62740436E+03  d E =-.143368E-01  mag=    19.9959
       N       E                     dE             d eps       ncg     rms          rms(c)
DAV:   1    -0.627410693572E+03   -0.63273E-02   -0.36589E-01 10752   0.110E+00    0.392E-01
DAV:   2    -0.627411629869E+03   -0.93630E-03   -0.25708E-02 14016   0.419E-01    0.515E-01
DAV:   3    -0.627411294796E+03    0.33507E-03   -0.32276E-03 13428   0.133E-01    0.394E-01
DAV:   4    -0.627410921767E+03    0.37303E-03   -0.18807E-03 12900   0.854E-02    0.285E-01
DAV:   5    -0.627410818806E+03    0.10296E-03   -0.58673E-04 12744   0.767E-02    0.130E-01
DAV:   6    -0.627410819982E+03   -0.11763E-05   -0.49060E-04 12336   0.617E-02
  14 F= -.62741082E+03 E0= -.62741082E+03  d E =-.645841E-02  mag=    19.9968
       N       E                     dE             d eps       ncg     rms          rms(c)
DAV:   1    -0.627417966461E+03   -0.71477E-02   -0.20094E+00 10752   0.282E+00    0.427E-01
DAV:   2    -0.627422452584E+03   -0.44861E-02   -0.64482E-02 14112   0.616E-01    0.447E-01
DAV:   3    -0.627422255050E+03    0.19753E-03   -0.54849E-03 14280   0.184E-01    0.252E-01
DAV:   4    -0.627422037932E+03    0.21712E-03   -0.12049E-03 14760   0.963E-02    0.203E-01
DAV:   5    -0.627421949151E+03    0.88781E-04   -0.60332E-04 12732   0.715E-02
  15 F= -.62742195E+03 E0= -.62742195E+03  d E =-.111292E-01  mag=    19.9973
       N       E                     dE             d eps       ncg     rms          rms(c)
DAV:   1    -0.627427214945E+03   -0.51770E-02   -0.10406E+00 10752   0.201E+00    0.263E-01
DAV:   2    -0.627429796777E+03   -0.25818E-02   -0.30459E-02 13440   0.384E-01    0.248E-01
DAV:   3    -0.627429690545E+03    0.10623E-03   -0.16948E-03 14652   0.986E-02    0.166E-01
DAV:   4    -0.627429593792E+03    0.96753E-04   -0.43568E-04 10512   0.477E-02
  16 F= -.62742959E+03 E0= -.62742959E+03  d E =-.764464E-02  mag=    19.9977
       N       E                     dE             d eps       ncg     rms          rms(c)
DAV:   1    -0.627434120011E+03   -0.44295E-02   -0.65297E-01 10752   0.158E+00    0.225E-01
DAV:   2    -0.627435755578E+03   -0.16356E-02   -0.21529E-02 13452   0.327E-01    0.265E-01
DAV:   3    -0.627435638135E+03    0.11744E-03   -0.13258E-03 13728   0.892E-02    0.176E-01
DAV:   4    -0.627435507146E+03    0.13099E-03   -0.60310E-04 11388   0.570E-02    0.135E-01
DAV:   5    -0.627435471472E+03    0.35675E-04   -0.25387E-04  8856   0.513E-02
  17 F= -.62743547E+03 E0= -.62743547E+03  d E =-.587768E-02  mag=    19.9981
       N       E                     dE             d eps       ncg     rms          rms(c)
DAV:   1    -0.627439419981E+03   -0.39128E-02   -0.11068E+00 10752   0.206E+00    0.324E-01
DAV:   2    -0.627441603760E+03   -0.21838E-02   -0.36715E-02 14040   0.431E-01    0.306E-01
DAV:   3    -0.627441482018E+03    0.12174E-03   -0.31942E-03 14640   0.131E-01    0.181E-01
DAV:   4    -0.627441325184E+03    0.15683E-03   -0.12660E-03 14928   0.874E-02    0.142E-01
DAV:   5    -0.627441270676E+03    0.54508E-04   -0.38970E-04 10356   0.444E-02
  18 F= -.62744127E+03 E0= -.62744127E+03  d E =-.579920E-02  mag=    19.9985
       N       E                     dE             d eps       ncg     rms          rms(c)
DAV:   1    -0.627447169580E+03   -0.58444E-02   -0.79915E-01 10752   0.177E+00    0.347E-01
DAV:   2    -0.627448368621E+03   -0.11990E-02   -0.32427E-02 14496   0.449E-01    0.405E-01
DAV:   3    -0.627448095857E+03    0.27276E-03   -0.29952E-03 14136   0.136E-01    0.244E-01
DAV:   4    -0.627447883112E+03    0.21275E-03   -0.13451E-03 14580   0.880E-02    0.203E-01
DAV:   5    -0.627447838646E+03    0.44466E-04   -0.36590E-04 10656   0.531E-02
  19 F= -.62744784E+03 E0= -.62744784E+03  d E =-.656797E-02  mag=    19.9987
       N       E                     dE             d eps       ncg     rms          rms(c)
DAV:   1    -0.627452408537E+03   -0.45254E-02   -0.18982E+00 10752   0.271E+00    0.521E-01
DAV:   2    -0.627456095830E+03   -0.36873E-02   -0.69706E-02 14652   0.650E-01    0.564E-01
DAV:   3    -0.627455448119E+03    0.64771E-03   -0.76344E-03 14580   0.219E-01    0.345E-01
DAV:   4    -0.627455179308E+03    0.26881E-03   -0.18543E-03 14004   0.919E-02    0.245E-01
DAV:   5    -0.627455038761E+03    0.14055E-03   -0.42072E-04 11040   0.712E-02    0.114E-01
DAV:   6    -0.627455023180E+03    0.15581E-04   -0.25182E-04  8952   0.565E-02
  20 F= -.62745502E+03 E0= -.62745502E+03  d E =-.718453E-02  mag=    19.9990
       N       E                     dE             d eps       ncg     rms          rms(c)
DAV:   1    -0.627459976495E+03   -0.49377E-02   -0.61127E-01 10752   0.153E+00    0.380E-01
DAV:   2    -0.627461533750E+03   -0.15573E-02   -0.32018E-02 14280   0.471E-01    0.486E-01
DAV:   3    -0.627461135759E+03    0.39799E-03   -0.35956E-03 13704   0.149E-01    0.346E-01
DAV:   4    -0.627460838280E+03    0.29748E-03   -0.15864E-03 13104   0.868E-02    0.251E-01
DAV:   5    -0.627460740684E+03    0.97595E-04   -0.42589E-04 11616   0.767E-02
  21 F= -.62746074E+03 E0= -.62746074E+03  d E =-.571750E-02  mag=    19.9992
       N       E                     dE             d eps       ncg     rms          rms(c)
DAV:   1    -0.627464922675E+03   -0.40844E-02   -0.18405E+00 10752   0.266E+00    0.275E-01
DAV:   2    -0.627469436944E+03   -0.45143E-02   -0.48123E-02 12192   0.454E-01    0.153E-01
DAV:   3    -0.627469447182E+03   -0.10238E-04   -0.17733E-03 14952   0.858E-02    0.957E-02
DAV:   4    -0.627469343205E+03    0.10398E-03   -0.22720E-04  8280   0.436E-02    0.667E-02
DAV:   5    -0.627469314851E+03    0.28355E-04   -0.22167E-04  7092   0.356E-02
  22 F= -.62746931E+03 E0= -.62746931E+03  d E =-.857417E-02  mag=    19.9993
       N       E                     dE             d eps       ncg     rms          rms(c)
DAV:   1    -0.627457844521E+03    0.11499E-01   -0.15541E+00 10752   0.246E+00    0.272E-01
DAV:   2    -0.627461889252E+03   -0.40447E-02   -0.44253E-02 13152   0.482E-01    0.301E-01
DAV:   3    -0.627461861965E+03    0.27286E-04   -0.26484E-03 14436   0.122E-01    0.170E-01
DAV:   4    -0.627461714028E+03    0.14794E-03   -0.53541E-04 12252   0.682E-02    0.149E-01
DAV:   5    -0.627461659428E+03    0.54600E-04   -0.39468E-04 10812   0.528E-02
  23 F= -.62746166E+03 E0= -.62746166E+03  d E =0.765542E-02  mag=    19.9994
       N       E                     dE             d eps       ncg     rms          rms(c)
DAV:   1    -0.627464102842E+03   -0.23888E-02   -0.39307E+00 10752   0.391E+00    0.391E-01
DAV:   2    -0.627474095993E+03   -0.99932E-02   -0.10840E-01 13056   0.732E-01    0.391E-01
DAV:   3    -0.627474042854E+03    0.53139E-04   -0.58809E-03 14628   0.180E-01    0.197E-01
DAV:   4    -0.627473738863E+03    0.30399E-03   -0.90734E-04 14088   0.875E-02    0.177E-01
DAV:   5    -0.627473610367E+03    0.12850E-03   -0.70342E-04 12756   0.703E-02    0.860E-02
DAV:   6    -0.627473605105E+03    0.52620E-05   -0.37985E-04 10152   0.467E-02
  24 F= -.62747361E+03 E0= -.62747361E+03  d E =-.119457E-01  mag=    19.9995
       N       E                     dE             d eps       ncg     rms          rms(c)
DAV:   1    -0.627475835697E+03   -0.22253E-02   -0.16681E-01 10752   0.796E-01    0.124E-01
DAV:   2    -0.627476181595E+03   -0.34590E-03   -0.53516E-03 14724   0.178E-01    0.131E-01
DAV:   3    -0.627476175527E+03    0.60678E-05   -0.53438E-04 11892   0.556E-02
  25 F= -.62747618E+03 E0= -.62747618E+03  d E =-.257042E-02  mag=    19.9996
       N       E                     dE             d eps       ncg     rms          rms(c)
DAV:   1    -0.627480421219E+03   -0.42396E-02   -0.10259E+00 10752   0.199E+00    0.332E-01
DAV:   2    -0.627482071997E+03   -0.16508E-02   -0.30641E-02 14220   0.416E-01    0.282E-01
DAV:   3    -0.627481933041E+03    0.13896E-03   -0.33921E-03 14544   0.141E-01    0.129E-01
DAV:   4    -0.627481781975E+03    0.15107E-03   -0.57388E-04 11988   0.585E-02    0.966E-02
DAV:   5    -0.627481728269E+03    0.53706E-04   -0.18700E-04  7476   0.472E-02
  26 F= -.62748173E+03 E0= -.62748173E+03  d E =-.555274E-02  mag=    19.9996
       N       E                     dE             d eps       ncg     rms          rms(c)
DAV:   1    -0.627485075519E+03   -0.32935E-02   -0.52132E-01 10752   0.144E+00    0.242E-01
DAV:   2    -0.627486036685E+03   -0.96117E-03   -0.19869E-02 14316   0.374E-01    0.298E-01
DAV:   3    -0.627485908712E+03    0.12797E-03   -0.22471E-03 13908   0.117E-01    0.167E-01
DAV:   4    -0.627485802671E+03    0.10604E-03   -0.50777E-04 11892   0.649E-02    0.146E-01
DAV:   5    -0.627485785287E+03    0.17384E-04   -0.25355E-04  9144   0.448E-02
  27 F= -.62748579E+03 E0= -.62748579E+03  d E =-.405702E-02  mag=    19.9997
       N       E                     dE             d eps       ncg     rms          rms(c)
DAV:   1    -0.627488573922E+03   -0.27713E-02   -0.10986E+00 10752   0.206E+00    0.246E-01
DAV:   2    -0.627491384880E+03   -0.28110E-02   -0.30908E-02 13356   0.383E-01    0.224E-01
DAV:   3    -0.627491362455E+03    0.22425E-04   -0.16156E-03 14772   0.942E-02    0.135E-01
DAV:   4    -0.627491268635E+03    0.93819E-04   -0.33677E-04  9324   0.471E-02
  28 F= -.62749127E+03 E0= -.62749127E+03  d E =-.548335E-02  mag=    19.9997
       N       E                     dE             d eps       ncg     rms          rms(c)
DAV:   1    -0.627493696705E+03   -0.23342E-02   -0.29870E-01 10752   0.106E+00    0.158E-01
DAV:   2    -0.627494380723E+03   -0.68402E-03   -0.96366E-03 13752   0.222E-01    0.182E-01
DAV:   3    -0.627494303980E+03    0.76743E-04   -0.56481E-04 11316   0.623E-02
  29 F= -.62749430E+03 E0= -.62749430E+03  d E =-.303534E-02  mag=    19.9998
       N       E                     dE             d eps       ncg     rms          rms(c)
DAV:   1    -0.627463548741E+03    0.30832E-01   -0.67731E+00 10752   0.511E+00    0.620E-01
DAV:   2    -0.627479726801E+03   -0.16178E-01   -0.18077E-01 11820   0.878E-01    0.306E-01
DAV:   3    -0.627479737105E+03   -0.10304E-04   -0.66493E-03 15444   0.194E-01    0.176E-01
DAV:   4    -0.627479446145E+03    0.29096E-03   -0.12568E-03 14916   0.874E-02    0.116E-01
DAV:   5    -0.627479299672E+03    0.14647E-03   -0.36011E-04  9828   0.491E-02    0.578E-02
DAV:   6    -0.627479287078E+03    0.12594E-04   -0.16315E-04  7080   0.330E-02
  30 F= -.62747929E+03 E0= -.62747929E+03  d E =0.150169E-01  mag=    19.9998
       N       E                     dE             d eps       ncg     rms          rms(c)
DAV:   1    -0.627487186641E+03   -0.78870E-02   -0.21000E+00 10752   0.288E+00    0.605E-01
DAV:   2    -0.627488481372E+03   -0.12947E-02   -0.74502E-02 14856   0.637E-01    0.507E-01
DAV:   3    -0.627487704403E+03    0.77697E-03   -0.78413E-03 14652   0.246E-01    0.193E-01
DAV:   4    -0.627487447356E+03    0.25705E-03   -0.95743E-04 13656   0.785E-02    0.154E-01
DAV:   5    -0.627487386849E+03    0.60507E-04   -0.24513E-04  7188   0.475E-02
  31 F= -.62748739E+03 E0= -.62748739E+03  d E =-.809977E-02  mag=    19.9998
       N       E                     dE             d eps       ncg     rms          rms(c)
DAV:   1    -0.627479348096E+03    0.80993E-02   -0.10489E+01 10752   0.636E+00    0.760E-01
DAV:   2    -0.627506050922E+03   -0.26703E-01   -0.28455E-01 12756   0.115E+00    0.585E-01
DAV:   3    -0.627505945155E+03    0.10577E-03   -0.13088E-02 14472   0.278E-01    0.265E-01
DAV:   4    -0.627505297812E+03    0.64734E-03   -0.19266E-03 15288   0.122E-01    0.225E-01
DAV:   5    -0.627505089104E+03    0.20871E-03   -0.11898E-03 12720   0.775E-02    0.866E-02
DAV:   6    -0.627505094705E+03   -0.56015E-05   -0.25948E-04  8064   0.428E-02
  32 F= -.62750509E+03 E0= -.62750509E+03  d E =-.177079E-01  mag=    19.9999
       N       E                     dE             d eps       ncg     rms          rms(c)
DAV:   1    -0.627506568974E+03   -0.14799E-02   -0.17025E-01 10752   0.819E-01    0.210E-01
DAV:   2    -0.627506750143E+03   -0.18117E-03   -0.66200E-03 15036   0.201E-01    0.173E-01
DAV:   3    -0.627506712279E+03    0.37864E-04   -0.52363E-04 11664   0.805E-02
  33 F= -.62750671E+03 E0= -.62750671E+03  d E =-.161757E-02  mag=    19.9999
       N       E                     dE             d eps       ncg     rms          rms(c)
DAV:   1    -0.627506745945E+03    0.41986E-05   -0.55648E-03 10440   0.136E-01    0.508E-02
DAV:   2    -0.627506782390E+03   -0.36445E-04   -0.45059E-04 10632   0.435E-02
  34 F= -.62750678E+03 E0= -.62750678E+03  d E =-.701106E-04  mag=    19.9999
       N       E                     dE             d eps       ncg     rms          rms(c)
DAV:   1    -0.627509409065E+03   -0.26631E-02   -0.11199E+00 10752   0.209E+00    0.353E-01
DAV:   2    -0.627511600502E+03   -0.21914E-02   -0.32676E-02 13392   0.404E-01    0.231E-01
DAV:   3    -0.627511555585E+03    0.44918E-04   -0.23164E-03 15288   0.121E-01    0.114E-01
DAV:   4    -0.627511464207E+03    0.91377E-04   -0.51510E-04 11592   0.541E-02
  35 F= -.62751146E+03 E0= -.62751146E+03  d E =-.468182E-02  mag=    19.9999
       N       E                     dE             d eps       ncg     rms          rms(c)
DAV:   1    -0.627510916429E+03    0.63916E-03   -0.12462E-01 10824   0.708E-01    0.247E-01
DAV:   2    -0.627510720967E+03    0.19546E-03   -0.88290E-03 15192   0.228E-01    0.256E-01
DAV:   3    -0.627510499808E+03    0.22116E-03   -0.11877E-03 14184   0.922E-02    0.151E-01
DAV:   4    -0.627510455243E+03    0.44564E-04   -0.28022E-04  8832   0.409E-02
  36 F= -.62751046E+03 E0= -.62751046E+03  d E =0.100896E-02  mag=    19.9999
       N       E                     dE             d eps       ncg     rms          rms(c)
DAV:   1    -0.627512524750E+03   -0.20249E-02   -0.18345E+00 10752   0.267E+00    0.416E-01
DAV:   2    -0.627516267310E+03   -0.37426E-02   -0.52942E-02 12840   0.538E-01    0.297E-01
DAV:   3    -0.627516353145E+03   -0.85835E-04   -0.47595E-03 15504   0.170E-01    0.230E-01
DAV:   4    -0.627516168473E+03    0.18467E-03   -0.99846E-04 13848   0.678E-02    0.145E-01
DAV:   5    -0.627516019989E+03    0.14848E-03   -0.28057E-04  8784   0.624E-02    0.616E-02
DAV:   6    -0.627516032895E+03   -0.12905E-04   -0.36474E-04 10524   0.466E-02
  37 F= -.62751603E+03 E0= -.62751603E+03  d E =-.557765E-02  mag=    19.9999
       N       E                     dE             d eps       ncg     rms          rms(c)
DAV:   1    -0.627518928446E+03   -0.29085E-02   -0.26265E-01 10752   0.102E+00    0.266E-01
DAV:   2    -0.627518950862E+03   -0.22416E-04   -0.91830E-03 14028   0.243E-01    0.172E-01
DAV:   3    -0.627518930021E+03    0.20841E-04   -0.13119E-03 15648   0.105E-01    0.126E-01
DAV:   4    -0.627518888620E+03    0.41401E-04   -0.35883E-04 10116   0.412E-02
  38 F= -.62751889E+03 E0= -.62751889E+03  d E =-.285573E-02  mag=    19.9999
       N       E                     dE             d eps       ncg     rms          rms(c)
DAV:   1    -0.627518817172E+03    0.11285E-03   -0.19105E-04  7512   0.391E-02    0.416E-02
DAV:   2    -0.627518820607E+03   -0.34349E-05   -0.65065E-05  6456   0.264E-02
  39 F= -.62751882E+03 E0= -.62751882E+03  d E =0.680127E-04  mag=    19.9999
       N       E                     dE             d eps       ncg     rms          rms(c)
DAV:   1    -0.627521926801E+03   -0.31096E-02   -0.94974E-01 10752   0.191E+00    0.288E-01
DAV:   2    -0.627523623417E+03   -0.16966E-02   -0.26602E-02 13320   0.355E-01    0.207E-01
DAV:   3    -0.627523555190E+03    0.68227E-04   -0.20272E-03 14568   0.114E-01    0.916E-02
DAV:   4    -0.627523459537E+03    0.95653E-04   -0.20117E-04  7200   0.413E-02
  40 F= -.62752346E+03 E0= -.62752346E+03  d E =-.463893E-02  mag=    20.0000
       N       E                     dE             d eps       ncg     rms          rms(c)
DAV:   1    -0.627527569825E+03   -0.40146E-02   -0.61452E-01 10752   0.159E+00    0.492E-01
DAV:   2    -0.627526081529E+03    0.14883E-02   -0.28566E-02 15408   0.433E-01    0.409E-01
DAV:   3    -0.627525538207E+03    0.54332E-03   -0.38604E-03 15228   0.173E-01    0.172E-01
DAV:   4    -0.627525383434E+03    0.15477E-03   -0.53582E-04 11772   0.633E-02    0.129E-01
DAV:   5    -0.627525364882E+03    0.18553E-04   -0.20166E-04  7008   0.391E-02
  41 F= -.62752536E+03 E0= -.62752536E+03  d E =-.190535E-02  mag=    20.0000
       N       E                     dE             d eps       ncg     rms          rms(c)
DAV:   1    -0.627530997640E+03   -0.56142E-02   -0.52811E-01 10752   0.148E+00    0.456E-01
DAV:   2    -0.627529039170E+03    0.19585E-02   -0.21841E-02 14976   0.373E-01    0.276E-01
DAV:   3    -0.627528705591E+03    0.33358E-03   -0.40116E-03 15876   0.188E-01    0.182E-01
DAV:   4    -0.627528609728E+03    0.95863E-04   -0.14379E-03 14700   0.768E-02    0.900E-02
DAV:   5    -0.627528544381E+03    0.65347E-04   -0.15402E-04  7560   0.381E-02
  42 F= -.62752854E+03 E0= -.62752854E+03  d E =-.317950E-02  mag=    20.0000
       N       E                     dE             d eps       ncg     rms          rms(c)
DAV:   1    -0.627529704539E+03   -0.10948E-02   -0.96875E-02 10752   0.609E-01    0.111E-01
DAV:   2    -0.627529851353E+03   -0.14681E-03   -0.33236E-03 13764   0.150E-01    0.103E-01
DAV:   3    -0.627529859438E+03   -0.80853E-05   -0.49158E-04 10764   0.500E-02
  43 F= -.62752986E+03 E0= -.62752986E+03  d E =-.131506E-02  mag=    20.0000
       N       E                     dE             d eps       ncg     rms          rms(c)
DAV:   1    -0.627531195821E+03   -0.13445E-02   -0.15304E+00 10752   0.242E+00    0.265E-01
DAV:   2    -0.627535036758E+03   -0.38409E-02   -0.39843E-02 13224   0.428E-01    0.196E-01
DAV:   3    -0.627535039117E+03   -0.23598E-05   -0.17688E-03 14952   0.994E-02    0.123E-01
DAV:   4    -0.627534964724E+03    0.74393E-04   -0.12673E-04  7272   0.304E-02
  44 F= -.62753496E+03 E0= -.62753496E+03  d E =-.510529E-02  mag=    20.0000
       N       E                     dE             d eps       ncg     rms          rms(c)
DAV:   1    -0.627530968691E+03    0.40704E-02   -0.49784E-01 10752   0.139E+00    0.183E-01
DAV:   2    -0.627532193813E+03   -0.12251E-02   -0.15489E-02 13416   0.278E-01    0.159E-01
DAV:   3    -0.627532157437E+03    0.36377E-04   -0.95391E-04 13296   0.786E-02
  45 F= -.62753216E+03 E0= -.62753216E+03  d E =0.280729E-02  mag=    20.0000
       N       E                     dE             d eps       ncg     rms          rms(c)
DAV:   1    -0.627533254866E+03   -0.10611E-02   -0.12562E+00 10752   0.220E+00    0.263E-01
DAV:   2    -0.627536441779E+03   -0.31869E-02   -0.36810E-02 13812   0.439E-01    0.246E-01
DAV:   3    -0.627536489092E+03   -0.47313E-04   -0.29327E-03 15444   0.122E-01    0.149E-01
DAV:   4    -0.627536365855E+03    0.12324E-03   -0.51638E-04 11652   0.531E-02    0.108E-01
DAV:   5    -0.627536307229E+03    0.58626E-04   -0.37408E-04 10716   0.435E-02
  46 F= -.62753631E+03 E0= -.62753631E+03  d E =-.414979E-02  mag=    20.0000
       N       E                     dE             d eps       ncg     rms          rms(c)
DAV:   1    -0.627537938236E+03   -0.15724E-02   -0.16535E-01 10752   0.792E-01    0.118E-01
DAV:   2    -0.627538304125E+03   -0.36589E-03   -0.51733E-03 14628   0.174E-01    0.135E-01
DAV:   3    -0.627538273086E+03    0.31039E-04   -0.40744E-04 10656   0.500E-02
  47 F= -.62753827E+03 E0= -.62753827E+03  d E =-.196586E-02  mag=    20.0000
       N       E                     dE             d eps       ncg     rms          rms(c)
DAV:   1    -0.627539753784E+03   -0.14497E-02   -0.12191E+00 10752   0.216E+00    0.254E-01
DAV:   2    -0.627542798073E+03   -0.30443E-02   -0.31261E-02 12384   0.370E-01    0.145E-01
DAV:   3    -0.627542802686E+03   -0.46130E-05   -0.11310E-03 14268   0.734E-02    0.985E-02
DAV:   4    -0.627542739955E+03    0.62731E-04   -0.94923E-05  6684   0.272E-02
  48 F= -.62754274E+03 E0= -.62754274E+03  d E =-.446687E-02  mag=    20.0000
       N       E                     dE             d eps       ncg     rms          rms(c)
DAV:   1    -0.627542974166E+03   -0.17148E-03   -0.62225E-03 10944   0.155E-01    0.522E-02
DAV:   2    -0.627542960198E+03    0.13968E-04   -0.24103E-04  7848   0.380E-02
  49 F= -.62754296E+03 E0= -.62754296E+03  d E =-.220243E-03  mag=    20.0000
       N       E                     dE             d eps       ncg     rms          rms(c)
DAV:   1    -0.627542985571E+03   -0.11405E-04   -0.83308E-04 10344   0.648E-02    0.403E-02
DAV:   2    -0.627542962478E+03    0.23093E-04   -0.11636E-04  6228   0.328E-02
  50 F= -.62754296E+03 E0= -.62754296E+03  d E =-.227988E-05  mag=    20.0000
       N       E                     dE             d eps       ncg     rms          rms(c)
DAV:   1    -0.627544382188E+03   -0.13966E-02   -0.91897E-01 10752   0.188E+00    0.213E-01
DAV:   2    -0.627546594271E+03   -0.22121E-02   -0.24384E-02 12972   0.335E-01    0.128E-01
DAV:   3    -0.627546624504E+03   -0.30233E-04   -0.12959E-03 14472   0.750E-02    0.831E-02
DAV:   4    -0.627546561745E+03    0.62759E-04   -0.14414E-04  7056   0.377E-02
  51 F= -.62754656E+03 E0= -.62754656E+03  d E =-.359927E-02  mag=    20.0000
       N       E                     dE             d eps       ncg     rms          rms(c)
DAV:   1    -0.627547007424E+03   -0.38292E-03   -0.11235E-02 11088   0.205E-01    0.490E-02
DAV:   2    -0.627547003284E+03    0.41409E-05   -0.45708E-04 10920   0.585E-02
  52 F= -.62754700E+03 E0= -.62754700E+03  d E =-.441539E-03  mag=    20.0000
       N       E                     dE             d eps       ncg     rms          rms(c)
DAV:   1    -0.627548856771E+03   -0.18493E-02   -0.32839E-01 10752   0.113E+00    0.203E-01
DAV:   2    -0.627549301528E+03   -0.44476E-03   -0.10639E-02 14148   0.235E-01    0.150E-01
DAV:   3    -0.627549222028E+03    0.79499E-04   -0.89703E-04 14028   0.809E-02
  53 F= -.62754922E+03 E0= -.62754922E+03  d E =-.221874E-02  mag=    20.0000
       N       E                     dE             d eps       ncg     rms          rms(c)
DAV:   1    -0.627550181940E+03   -0.88041E-03   -0.10993E-01 10776   0.647E-01    0.100E-01
DAV:   2    -0.627550403056E+03   -0.22112E-03   -0.30816E-03 13896   0.130E-01    0.863E-02
DAV:   3    -0.627550381683E+03    0.21374E-04   -0.23127E-04  8364   0.419E-02
  54 F= -.62755038E+03 E0= -.62755038E+03  d E =-.115965E-02  mag=    20.0000
       N       E                     dE             d eps       ncg     rms          rms(c)
DAV:   1    -0.627551431423E+03   -0.10284E-02   -0.10932E-01 10752   0.651E-01    0.894E-02
DAV:   2    -0.627551655428E+03   -0.22401E-03   -0.31642E-03 13212   0.128E-01    0.620E-02
DAV:   3    -0.627551642662E+03    0.12766E-04   -0.20380E-04  7476   0.368E-02
  55 F= -.62755164E+03 E0= -.62755164E+03  d E =-.126098E-02  mag=    20.0000
       N       E                     dE             d eps       ncg     rms          rms(c)
DAV:   1    -0.627553205681E+03   -0.15503E-02   -0.42988E-01 10752   0.129E+00    0.178E-01
DAV:   2    -0.627553984971E+03   -0.77929E-03   -0.11593E-02 13248   0.230E-01    0.957E-02
DAV:   3    -0.627553969572E+03    0.15400E-04   -0.77033E-04 13656   0.674E-02
  56 F= -.62755397E+03 E0= -.62755397E+03  d E =-.232691E-02  mag=    20.0000
       N       E                     dE             d eps       ncg     rms          rms(c)
DAV:   1    -0.627555740438E+03   -0.17555E-02   -0.36461E-01 10752   0.119E+00    0.196E-01
DAV:   2    -0.627556267317E+03   -0.52688E-03   -0.10749E-02 13716   0.232E-01    0.138E-01
DAV:   3    -0.627556207438E+03    0.59879E-04   -0.82854E-04 13572   0.763E-02
  57 F= -.62755621E+03 E0= -.62755621E+03  d E =-.223787E-02  mag=    20.0000
       N       E                     dE             d eps       ncg     rms          rms(c)
DAV:   1    -0.627557761430E+03   -0.14941E-02   -0.28719E-01 10752   0.106E+00    0.196E-01
DAV:   2    -0.627558175401E+03   -0.41397E-03   -0.95480E-03 14544   0.232E-01    0.188E-01
DAV:   3    -0.627558083720E+03    0.91681E-04   -0.88991E-04 13344   0.800E-02
  58 F= -.62755808E+03 E0= -.62755808E+03  d E =-.187628E-02  mag=    20.0000
       N       E                     dE             d eps       ncg     rms          rms(c)
DAV:   1    -0.627558934795E+03   -0.75939E-03   -0.10051E-01 10752   0.624E-01    0.976E-02
DAV:   2    -0.627559186471E+03   -0.25168E-03   -0.33947E-03 13920   0.149E-01    0.115E-01
DAV:   3    -0.627559160080E+03    0.26390E-04   -0.30773E-04  9432   0.452E-02
  59 F= -.62755916E+03 E0= -.62755916E+03  d E =-.107636E-02  mag=    20.0000
       N       E                     dE             d eps       ncg     rms          rms(c)
DAV:   1    -0.627560490829E+03   -0.13044E-02   -0.51243E-01 10764   0.140E+00    0.182E-01
DAV:   2    -0.627561648086E+03   -0.11573E-02   -0.13276E-02 12708   0.242E-01    0.988E-02
DAV:   3    -0.627561646860E+03    0.12252E-05   -0.64193E-04 12540   0.612E-02
  60 F= -.62756165E+03 E0= -.62756165E+03  d E =-.248678E-02  mag=    20.0000
       N       E                     dE             d eps       ncg     rms          rms(c)
DAV:   1    -0.627563186465E+03   -0.15384E-02   -0.49717E-01 10752   0.138E+00    0.186E-01
DAV:   2    -0.627564196269E+03   -0.10098E-02   -0.13297E-02 13104   0.248E-01    0.137E-01
DAV:   3    -0.627564155822E+03    0.40447E-04   -0.68204E-04 12804   0.670E-02
  61 F= -.62756416E+03 E0= -.62756416E+03  d E =-.250896E-02  mag=    20.0000
       N       E                     dE             d eps       ncg     rms          rms(c)
DAV:   1    -0.627565363126E+03   -0.11669E-02   -0.26807E-01 10752   0.101E+00    0.146E-01
DAV:   2    -0.627565925899E+03   -0.56277E-03   -0.70024E-03 13380   0.184E-01    0.116E-01
DAV:   3    -0.627565904926E+03    0.20972E-04   -0.39894E-04 10224   0.527E-02
  62 F= -.62756590E+03 E0= -.62756590E+03  d E =-.174910E-02  mag=    20.0000
       N       E                     dE             d eps       ncg     rms          rms(c)
DAV:   1    -0.627566822593E+03   -0.89669E-03   -0.14270E-01 10752   0.741E-01    0.991E-02
DAV:   2    -0.627567139420E+03   -0.31683E-03   -0.37322E-03 13308   0.139E-01    0.773E-02
DAV:   3    -0.627567131965E+03    0.74547E-05   -0.19069E-04  7308   0.339E-02
  63 F= -.62756713E+03 E0= -.62756713E+03  d E =-.122704E-02  mag=    20.0000
       N       E                     dE             d eps       ncg     rms          rms(c)
DAV:   1    -0.627568262290E+03   -0.11229E-02   -0.31231E-01 10764   0.109E+00    0.129E-01
DAV:   2    -0.627569002840E+03   -0.74055E-03   -0.77409E-03 12264   0.180E-01    0.725E-02
DAV:   3    -0.627569001589E+03    0.12508E-05   -0.25356E-04  9036   0.377E-02
  64 F= -.62756900E+03 E0= -.62756900E+03  d E =-.186962E-02  mag=    20.0000
       N       E                     dE             d eps       ncg     rms          rms(c)
DAV:   1    -0.627569772055E+03   -0.76921E-03   -0.74321E-02 10752   0.533E-01    0.717E-02
DAV:   2    -0.627569920655E+03   -0.14860E-03   -0.18819E-03 12900   0.912E-02    0.540E-02
DAV:   3    -0.627569908578E+03    0.12077E-04   -0.66107E-05  6108   0.230E-02
  65 F= -.62756991E+03 E0= -.62756991E+03  d E =-.906989E-03  mag=    20.0000
       N       E                     dE             d eps       ncg     rms          rms(c)
DAV:   1    -0.627565099628E+03    0.48210E-02   -0.46289E+00 10752   0.421E+00    0.488E-01
DAV:   2    -0.627576760106E+03   -0.11660E-01   -0.11945E-01 11952   0.712E-01    0.293E-01
DAV:   3    -0.627576847232E+03   -0.87126E-04   -0.41255E-03 15780   0.141E-01    0.183E-01
DAV:   4    -0.627576632408E+03    0.21482E-03   -0.40732E-04 10020   0.492E-02    0.115E-01
DAV:   5    -0.627576485700E+03    0.14671E-03   -0.58944E-04 11028   0.570E-02    0.397E-02
DAV:   6    -0.627576499153E+03   -0.13453E-04   -0.14326E-04  6528   0.300E-02
  66 F= -.62757650E+03 E0= -.62757650E+03  d E =-.659058E-02  mag=    20.0000
       N       E                     dE             d eps       ncg     rms          rms(c)
DAV:   1    -0.627577484142E+03   -0.99844E-03   -0.32997E-02 11064   0.384E-01    0.191E-01
DAV:   2    -0.627577027660E+03    0.45648E-03   -0.26697E-03 15732   0.131E-01    0.126E-01
DAV:   3    -0.627576963277E+03    0.64383E-04   -0.46347E-04 11292   0.683E-02
  67 F= -.62757696E+03 E0= -.62757696E+03  d E =-.464123E-03  mag=    20.0000
       N       E                     dE             d eps       ncg     rms          rms(c)
DAV:   1    -0.627563078025E+03    0.13950E-01   -0.92315E+00 10776   0.594E+00    0.641E-01
DAV:   2    -0.627586252824E+03   -0.23175E-01   -0.23583E-01 11820   0.990E-01    0.339E-01
DAV:   3    -0.627586506084E+03   -0.25326E-03   -0.85863E-03 15528   0.184E-01    0.186E-01
DAV:   4    -0.627586035000E+03    0.47108E-03   -0.12636E-03 14304   0.795E-02    0.111E-01
DAV:   5    -0.627585859020E+03    0.17598E-03   -0.83443E-04 12588   0.696E-02    0.464E-02
DAV:   6    -0.627585860643E+03   -0.16230E-05   -0.22413E-04  7740   0.414E-02
  68 F= -.62758586E+03 E0= -.62758586E+03  d E =-.889737E-02  mag=    20.0000
       N       E                     dE             d eps       ncg     rms          rms(c)
DAV:   1    -0.627582220076E+03    0.36389E-02   -0.65442E-01 10752   0.159E+00    0.200E-01
DAV:   2    -0.627583808541E+03   -0.15885E-02   -0.18387E-02 13020   0.295E-01    0.176E-01
DAV:   3    -0.627583772291E+03    0.36250E-04   -0.10018E-03 13596   0.797E-02    0.784E-02
DAV:   4    -0.627583720659E+03    0.51632E-04   -0.11303E-04  6444   0.324E-02
  69 F= -.62758372E+03 E0= -.62758372E+03  d E =0.213998E-02  mag=    20.0000
       N       E                     dE             d eps       ncg     rms          rms(c)
DAV:   1    -0.627584329514E+03   -0.55722E-03   -0.57710E-01 10752   0.149E+00    0.217E-01
DAV:   2    -0.627585771650E+03   -0.14421E-02   -0.16729E-02 12636   0.277E-01    0.140E-01
DAV:   3    -0.627585774165E+03   -0.25159E-05   -0.63852E-04 12780   0.622E-02
  70 F= -.62758577E+03 E0= -.62758577E+03  d E =-.205351E-02  mag=    20.0000
       N       E                     dE             d eps       ncg     rms          rms(c)
DAV:   1    -0.627586351567E+03   -0.57992E-03   -0.50652E-02 10752   0.439E-01    0.705E-02
DAV:   2    -0.627586473401E+03   -0.12183E-03   -0.16744E-03 13224   0.898E-02    0.613E-02
DAV:   3    -0.627586456287E+03    0.17114E-04   -0.79468E-05  6084   0.278E-02
  71 F= -.62758646E+03 E0= -.62758646E+03  d E =-.682122E-03  mag=    20.0000
       N       E                     dE             d eps       ncg     rms          rms(c)
DAV:   1    -0.627586195875E+03    0.27753E-03   -0.66542E-03 10728   0.162E-01    0.384E-02
DAV:   2    -0.627586204466E+03   -0.85912E-05   -0.21023E-04  7236   0.359E-02
  72 F= -.62758620E+03 E0= -.62758620E+03  d E =0.251821E-03  mag=    20.0000
       N       E                     dE             d eps       ncg     rms          rms(c)
DAV:   1    -0.627587006274E+03   -0.81040E-03   -0.47793E-01 10752   0.135E+00    0.142E-01
DAV:   2    -0.627588173104E+03   -0.11668E-02   -0.12362E-02 12408   0.231E-01    0.720E-02
DAV:   3    -0.627588175594E+03   -0.24895E-05   -0.41269E-04 10524   0.426E-02
  73 F= -.62758818E+03 E0= -.62758818E+03  d E =-.197113E-02  mag=    20.0000
       N       E                     dE             d eps       ncg     rms          rms(c)
DAV:   1    -0.627588377538E+03   -0.20443E-03   -0.40483E-03 11472   0.132E-01    0.582E-02
DAV:   2    -0.627588327577E+03    0.49960E-04   -0.21508E-04  6696   0.429E-02
  74 F= -.62758833E+03 E0= -.62758833E+03  d E =-.151984E-03  mag=    20.0000
       N       E                     dE             d eps       ncg     rms          rms(c)
DAV:   1    -0.627589557111E+03   -0.11796E-02   -0.10488E-01 11052   0.687E-01    0.363E-01
DAV:   2    -0.627587843586E+03    0.17135E-02   -0.11852E-02 15888   0.277E-01    0.269E-01
DAV:   3    -0.627587556170E+03    0.28742E-03   -0.22837E-03 15336   0.133E-01    0.957E-02
DAV:   4    -0.627587493388E+03    0.62782E-04   -0.19620E-04  8412   0.439E-02
  75 F= -.62758749E+03 E0= -.62758749E+03  d E =0.834189E-03  mag=    20.0000
       N       E                     dE             d eps       ncg     rms          rms(c)
DAV:   1    -0.627586234296E+03    0.13219E-02   -0.11757E-01 10752   0.690E-01    0.153E-01
DAV:   2    -0.627586355083E+03   -0.12079E-03   -0.42053E-03 14232   0.147E-01    0.127E-01
DAV:   3    -0.627586310891E+03    0.44192E-04   -0.32534E-04  9756   0.533E-02
  76 F= -.62758631E+03 E0= -.62758631E+03  d E =0.118250E-02  mag=    20.0000
       N       E                     dE             d eps       ncg     rms          rms(c)
DAV:   1    -0.627588856244E+03   -0.25012E-02   -0.39158E+00 10752   0.394E+00    0.802E-01
DAV:   2    -0.627592428746E+03   -0.35725E-02   -0.12380E-01 13428   0.782E-01    0.499E-01
DAV:   3    -0.627592027452E+03    0.40129E-03   -0.10533E-02 14592   0.292E-01    0.227E-01
DAV:   4    -0.627591650806E+03    0.37665E-03   -0.19085E-03 15576   0.977E-02    0.112E-01
DAV:   5    -0.627591536384E+03    0.11442E-03   -0.49249E-04 11892   0.592E-02    0.719E-02
DAV:   6    -0.627591513352E+03    0.23031E-04   -0.13014E-04  7212   0.302E-02
  77 F= -.62759151E+03 E0= -.62759151E+03  d E =-.520246E-02  mag=    20.0000
       N       E                     dE             d eps       ncg     rms          rms(c)
DAV:   1    -0.627590433035E+03    0.11033E-02   -0.51897E-01 10752   0.130E+00    0.376E-01
DAV:   2    -0.627591858013E+03   -0.14250E-02   -0.27565E-02 13968   0.383E-01    0.475E-01
DAV:   3    -0.627591634293E+03    0.22372E-03   -0.26949E-03 13128   0.117E-01    0.367E-01
DAV:   4    -0.627591291187E+03    0.34311E-03   -0.15039E-03 12624   0.759E-02    0.284E-01
DAV:   5    -0.627591249217E+03    0.41970E-04   -0.11544E-03 13680   0.856E-02    0.138E-01
DAV:   6    -0.627591191329E+03    0.57888E-04   -0.61842E-04 13092   0.687E-02
  78 F= -.62759119E+03 E0= -.62759119E+03  d E =0.322024E-03  mag=    20.0000
       N       E                     dE             d eps       ncg     rms          rms(c)
DAV:   1    -0.627592958379E+03   -0.17092E-02   -0.15103E-01 10752   0.700E-01    0.245E-01
DAV:   2    -0.627593297672E+03   -0.33929E-03   -0.88620E-03 13812   0.253E-01    0.310E-01
DAV:   3    -0.627593195981E+03    0.10169E-03   -0.11632E-03 12732   0.823E-02    0.227E-01
DAV:   4    -0.627593074124E+03    0.12186E-03   -0.44976E-04 10320   0.428E-02    0.167E-01
DAV:   5    -0.627593019894E+03    0.54231E-04   -0.22094E-04  9420   0.523E-02
  79 F= -.62759302E+03 E0= -.62759302E+03  d E =-.182856E-02  mag=    20.0000
       N       E                     dE             d eps       ncg     rms          rms(c)
DAV:   1    -0.627593712219E+03   -0.63809E-03   -0.40851E-01 10752   0.125E+00    0.147E-01
DAV:   2    -0.627594721777E+03   -0.10096E-02   -0.10643E-02 12096   0.213E-01    0.837E-02
DAV:   3    -0.627594716710E+03    0.50670E-05   -0.37975E-04 10848   0.486E-02
  80 F= -.62759472E+03 E0= -.62759472E+03  d E =-.169682E-02  mag=    20.0000
       N       E                     dE             d eps       ncg     rms          rms(c)
DAV:   1    -0.627595410323E+03   -0.68855E-03   -0.15114E-01 10752   0.756E-01    0.833E-02
DAV:   2    -0.627595755772E+03   -0.34545E-03   -0.37237E-03 12348   0.125E-01    0.513E-02
DAV:   3    -0.627595744645E+03    0.11127E-04   -0.10100E-04  7128   0.242E-02
  81 F= -.62759574E+03 E0= -.62759574E+03  d E =-.102793E-02  mag=    20.0000
       N       E                     dE             d eps       ncg     rms          rms(c)
DAV:   1    -0.627595722951E+03    0.32821E-04   -0.86833E-04 10920   0.633E-02    0.400E-02
DAV:   2    -0.627595710114E+03    0.12837E-04   -0.69579E-05  6024   0.247E-02
  82 F= -.62759571E+03 E0= -.62759571E+03  d E =0.345314E-04  mag=    20.0000
       N       E                     dE             d eps       ncg     rms          rms(c)
DAV:   1    -0.627596275676E+03   -0.55272E-03   -0.39481E-01 10752   0.123E+00    0.142E-01
DAV:   2    -0.627597293813E+03   -0.10181E-02   -0.10407E-02 12120   0.211E-01    0.896E-02
DAV:   3    -0.627597299937E+03   -0.61244E-05   -0.34498E-04  9804   0.436E-02
  83 F= -.62759730E+03 E0= -.62759730E+03  d E =-.158982E-02  mag=    20.0000
       N       E                     dE             d eps       ncg     rms          rms(c)
DAV:   1    -0.627597590649E+03   -0.29684E-03   -0.93446E-03 10920   0.194E-01    0.554E-02
DAV:   2    -0.627597562367E+03    0.28282E-04   -0.29976E-04  7452   0.452E-02
  84 F= -.62759756E+03 E0= -.62759756E+03  d E =-.262429E-03  mag=    20.0000
       N       E                     dE             d eps       ncg     rms          rms(c)
DAV:   1    -0.627598050515E+03   -0.45987E-03   -0.18548E-01 10752   0.839E-01    0.118E-01
DAV:   2    -0.627598517511E+03   -0.46700E-03   -0.56692E-03 14088   0.170E-01    0.138E-01
DAV:   3    -0.627598480021E+03    0.37491E-04   -0.27286E-04  9024   0.458E-02
  85 F= -.62759848E+03 E0= -.62759848E+03  d E =-.917654E-03  mag=    20.0000
       N       E                     dE             d eps       ncg     rms          rms(c)
DAV:   1    -0.627599474777E+03   -0.95727E-03   -0.33485E-02 11424   0.404E-01    0.254E-01
DAV:   2    -0.627598618331E+03    0.85645E-03   -0.58285E-03 15864   0.182E-01    0.169E-01
DAV:   3    -0.627598453803E+03    0.16453E-03   -0.11843E-03 14316   0.963E-02    0.612E-02
DAV:   4    -0.627598422153E+03    0.31650E-04   -0.89646E-05  7176   0.288E-02
  86 F= -.62759842E+03 E0= -.62759842E+03  d E =0.578682E-04  mag=    20.0000
       N       E                     dE             d eps       ncg     rms          rms(c)
DAV:   1    -0.627599423414E+03   -0.96961E-03   -0.62287E-02 10776   0.500E-01    0.166E-01
DAV:   2    -0.627599279553E+03    0.14386E-03   -0.33244E-03 15504   0.141E-01    0.122E-01
DAV:   3    -0.627599225899E+03    0.53654E-04   -0.38820E-04 10656   0.617E-02
  87 F= -.62759923E+03 E0= -.62759923E+03  d E =-.803747E-03  mag=    20.0000
       N       E                     dE             d eps       ncg     rms          rms(c)
DAV:   1    -0.627600023315E+03   -0.74376E-03   -0.38484E-01 10752   0.122E+00    0.201E-01
DAV:   2    -0.627600718862E+03   -0.69555E-03   -0.11149E-02 13224   0.226E-01    0.133E-01
DAV:   3    -0.627600677870E+03    0.40991E-04   -0.58328E-04 12516   0.676E-02
  88 F= -.62760068E+03 E0= -.62760068E+03  d E =-.145197E-02  mag=    20.0000
       N       E                     dE             d eps       ncg     rms          rms(c)
DAV:   1    -0.627601118447E+03   -0.39959E-03   -0.38444E-02 10752   0.382E-01    0.603E-02
DAV:   2    -0.627601186672E+03   -0.68224E-04   -0.96739E-04 11628   0.670E-02
  89 F= -.62760119E+03 E0= -.62760119E+03  d E =-.508801E-03  mag=    20.0000
       N       E                     dE             d eps       ncg     rms          rms(c)
DAV:   1    -0.627601557199E+03   -0.43875E-03   -0.55816E-02 10752   0.462E-01    0.677E-02
DAV:   2    -0.627601678801E+03   -0.12160E-03   -0.16601E-03 14004   0.930E-02    0.732E-02
DAV:   3    -0.627601666138E+03    0.12663E-04   -0.77591E-05  6504   0.260E-02
  90 F= -.62760167E+03 E0= -.62760167E+03  d E =-.479467E-03  mag=    20.0000
       N       E                     dE             d eps       ncg     rms          rms(c)
DAV:   1    -0.627602551492E+03   -0.87269E-03   -0.11170E-01 11184   0.695E-01    0.341E-01
DAV:   2    -0.627601368034E+03    0.11835E-02   -0.84380E-03 15552   0.219E-01    0.199E-01
DAV:   3    -0.627601222076E+03    0.14596E-03   -0.15901E-03 15144   0.119E-01    0.951E-02
DAV:   4    -0.627601165146E+03    0.56930E-04   -0.33990E-04  9936   0.457E-02
  91 F= -.62760117E+03 E0= -.62760117E+03  d E =0.500993E-03  mag=    20.0000
       N       E                     dE             d eps       ncg     rms          rms(c)
DAV:   1    -0.627602086212E+03   -0.86414E-03   -0.37146E-02 10752   0.383E-01    0.163E-01
DAV:   2    -0.627601843252E+03    0.24296E-03   -0.24884E-03 14856   0.125E-01    0.114E-01
DAV:   3    -0.627601798670E+03    0.44582E-04   -0.30182E-04 10092   0.614E-02
  92 F= -.62760180E+03 E0= -.62760180E+03  d E =-.633524E-03  mag=    20.0000
       N       E                     dE             d eps       ncg     rms          rms(c)
DAV:   1    -0.627602632504E+03   -0.78925E-03   -0.39513E-01 10752   0.124E+00    0.200E-01
DAV:   2    -0.627603222794E+03   -0.59029E-03   -0.11789E-02 13644   0.234E-01    0.125E-01
DAV:   3    -0.627603161480E+03    0.61314E-04   -0.64177E-04 13044   0.734E-02
  93 F= -.62760316E+03 E0= -.62760316E+03  d E =-.136281E-02  mag=    20.0000
       N       E                     dE             d eps       ncg     rms          rms(c)
DAV:   1    -0.627603541011E+03   -0.31822E-03   -0.30831E-02 10752   0.341E-01    0.616E-02
DAV:   2    -0.627603602725E+03   -0.61714E-04   -0.79137E-04 11400   0.605E-02
  94 F= -.62760360E+03 E0= -.62760360E+03  d E =-.441245E-03  mag=    20.0000
       N       E                     dE             d eps       ncg     rms          rms(c)
DAV:   1    -0.627603945008E+03   -0.40400E-03   -0.58930E-02 10752   0.478E-01    0.880E-02
DAV:   2    -0.627604038160E+03   -0.93152E-04   -0.19881E-03 14904   0.108E-01    0.941E-02
DAV:   3    -0.627604015897E+03    0.22263E-04   -0.13685E-04  7044   0.338E-02
  95 F= -.62760402E+03 E0= -.62760402E+03  d E =-.413172E-03  mag=    20.0000
       N       E                     dE             d eps       ncg     rms          rms(c)
DAV:   1    -0.627605213517E+03   -0.11754E-02   -0.13400E-01 11244   0.763E-01    0.360E-01
DAV:   2    -0.627603949804E+03    0.12637E-02   -0.91494E-03 15468   0.228E-01    0.210E-01
DAV:   3    -0.627603812521E+03    0.13728E-03   -0.17044E-03 15192   0.121E-01    0.979E-02
DAV:   4    -0.627603750676E+03    0.61846E-04   -0.38234E-04 10536   0.476E-02
  96 F= -.62760375E+03 E0= -.62760375E+03  d E =0.265221E-03  mag=    20.0000
       N       E                     dE             d eps       ncg     rms          rms(c)
DAV:   1    -0.627604564088E+03   -0.75157E-03   -0.56332E-01 10752   0.148E+00    0.284E-01
DAV:   2    -0.627605147881E+03   -0.58379E-03   -0.19673E-02 13752   0.333E-01    0.222E-01
DAV:   3    -0.627605032104E+03    0.11578E-03   -0.19893E-03 14916   0.107E-01    0.139E-01
DAV:   4    -0.627604951933E+03    0.80171E-04   -0.10757E-03 15240   0.798E-02    0.108E-01
DAV:   5    -0.627604921849E+03    0.30084E-04   -0.27043E-04  9000   0.453E-02
  97 F= -.62760492E+03 E0= -.62760492E+03  d E =-.117117E-02  mag=    20.0000
       N       E                     dE             d eps       ncg     rms          rms(c)
DAV:   1    -0.627605813606E+03   -0.86167E-03   -0.83560E-02 10752   0.555E-01    0.125E-01
DAV:   2    -0.627605954624E+03   -0.14102E-03   -0.35313E-03 13788   0.160E-01    0.150E-01
DAV:   3    -0.627605938349E+03    0.16275E-04   -0.48540E-04 10980   0.497E-02
  98 F= -.62760594E+03 E0= -.62760594E+03  d E =-.101650E-02  mag=    20.0000
       N       E                     dE             d eps       ncg     rms          rms(c)
DAV:   1    -0.627606946045E+03   -0.99142E-03   -0.29253E-01 10752   0.107E+00    0.247E-01
DAV:   2    -0.627606902285E+03    0.43760E-04   -0.96744E-03 14352   0.233E-01    0.132E-01
DAV:   3    -0.627606833335E+03    0.68951E-04   -0.13506E-03 14892   0.104E-01    0.900E-02
DAV:   4    -0.627606790596E+03    0.42739E-04   -0.27670E-04  9096   0.399E-02
  99 F= -.62760679E+03 E0= -.62760679E+03  d E =-.852247E-03  mag=    20.0000
       N       E                     dE             d eps       ncg     rms          rms(c)
DAV:   1    -0.627607712542E+03   -0.87921E-03   -0.66893E-02 10752   0.519E-01    0.149E-01
DAV:   2    -0.627607603552E+03    0.10899E-03   -0.27313E-03 14748   0.124E-01    0.898E-02
DAV:   3    -0.627607562957E+03    0.40596E-04   -0.28486E-04  9888   0.589E-02
 100 F= -.62760756E+03 E0= -.62760756E+03  d E =-.772361E-03  mag=    20.0000
       N       E                     dE             d eps       ncg     rms          rms(c)
DAV:   1    -0.627608213152E+03   -0.60960E-03   -0.19475E-01 10752   0.869E-01    0.144E-01
DAV:   2    -0.627608539288E+03   -0.32614E-03   -0.57209E-03 13680   0.164E-01    0.975E-02
DAV:   3    -0.627608504851E+03    0.34437E-04   -0.27998E-04  9468   0.504E-02
 101 F= -.62760850E+03 E0= -.62760850E+03  d E =-.941895E-03  mag=    20.0000
       N       E                     dE             d eps       ncg     rms          rms(c)
DAV:   1    -0.627608908001E+03   -0.36871E-03   -0.63864E-02 10752   0.496E-01    0.807E-02
DAV:   2    -0.627609023981E+03   -0.11598E-03   -0.17719E-03 13332   0.910E-02    0.661E-02
DAV:   3    -0.627609011436E+03    0.12545E-04   -0.70889E-05  6588   0.251E-02
 102 F= -.62760901E+03 E0= -.62760901E+03  d E =-.506585E-03  mag=    20.0000
       N       E                     dE             d eps       ncg     rms          rms(c)
DAV:   1    -0.627608489075E+03    0.53491E-03   -0.28350E-02 10752   0.333E-01    0.708E-02
DAV:   2    -0.627608569871E+03   -0.80796E-04   -0.84782E-04 11880   0.645E-02
 103 F= -.62760857E+03 E0= -.62760857E+03  d E =0.441565E-03  mag=    20.0000
       N       E                     dE             d eps       ncg     rms          rms(c)
DAV:   1    -0.627608450829E+03    0.38246E-04   -0.38318E-03 10728   0.121E-01    0.327E-02
DAV:   2    -0.627608462268E+03   -0.11439E-04   -0.91247E-05  6192   0.249E-02
 104 F= -.62760846E+03 E0= -.62760846E+03  d E =0.107603E-03  mag=    20.0000
       N       E                     dE             d eps       ncg     rms          rms(c)
DAV:   1    -0.627608255523E+03    0.19531E-03   -0.10709E+00 10752   0.202E+00    0.269E-01
DAV:   2    -0.627610965767E+03   -0.27102E-02   -0.28662E-02 12504   0.356E-01    0.155E-01
DAV:   3    -0.627611029201E+03   -0.63434E-04   -0.13872E-03 14736   0.830E-02    0.718E-02
DAV:   4    -0.627610957256E+03    0.71945E-04   -0.17727E-04  7764   0.364E-02
 105 F= -.62761096E+03 E0= -.62761096E+03  d E =-.249499E-02  mag=    20.0000
       N       E                     dE             d eps       ncg     rms          rms(c)
DAV:   1    -0.627610483252E+03    0.54595E-03   -0.96060E-01 10776   0.191E+00    0.262E-01
DAV:   2    -0.627613101066E+03   -0.26178E-02   -0.23760E-02 12516   0.318E-01    0.152E-01
DAV:   3    -0.627613199128E+03   -0.98062E-04   -0.10021E-03 13872   0.697E-02    0.842E-02
DAV:   4    -0.627613150834E+03    0.48294E-04   -0.76228E-05  6828   0.244E-02
 106 F= -.62761315E+03 E0= -.62761315E+03  d E =-.219358E-02  mag=    20.0000
       N       E                     dE             d eps       ncg     rms          rms(c)
DAV:   1    -0.627611734830E+03    0.14643E-02   -0.22436E-01 10752   0.938E-01    0.203E-01
DAV:   2    -0.627612150950E+03   -0.41612E-03   -0.75581E-03 13656   0.194E-01    0.137E-01
DAV:   3    -0.627612135621E+03    0.15329E-04   -0.52528E-04 11568   0.688E-02
 107 F= -.62761214E+03 E0= -.62761214E+03  d E =0.101521E-02  mag=    20.0000
       N       E                     dE             d eps       ncg     rms          rms(c)
DAV:   1    -0.627612166998E+03   -0.16048E-04   -0.36140E-01 10752   0.118E+00    0.186E-01
DAV:   2    -0.627613260478E+03   -0.10935E-02   -0.10572E-02 13200   0.229E-01    0.145E-01
DAV:   3    -0.627613287165E+03   -0.26687E-04   -0.44506E-04 10680   0.634E-02
 108 F= -.62761329E+03 E0= -.62761329E+03  d E =-.115154E-02  mag=    20.0000
       N       E                     dE             d eps       ncg     rms          rms(c)
DAV:   1    -0.627613619303E+03   -0.35883E-03   -0.20817E-02 10752   0.285E-01    0.744E-02
DAV:   2    -0.627613666545E+03   -0.47241E-04   -0.11412E-03 14208   0.761E-02    0.656E-02
DAV:   3    -0.627613639170E+03    0.27375E-04   -0.10277E-04  6768   0.323E-02
 109 F= -.62761364E+03 E0= -.62761364E+03  d E =-.352004E-03  mag=    20.0000
       N       E                     dE             d eps       ncg     rms          rms(c)
DAV:   1    -0.627614041963E+03   -0.37542E-03   -0.31819E-01 10752   0.110E+00    0.140E-01
DAV:   2    -0.627614823492E+03   -0.78153E-03   -0.80417E-03 13200   0.199E-01    0.113E-01
DAV:   3    -0.627614830267E+03   -0.67747E-05   -0.30384E-04  9144   0.556E-02
 110 F= -.62761483E+03 E0= -.62761483E+03  d E =-.119110E-02  mag=    20.0000
       N       E                     dE             d eps       ncg     rms          rms(c)
DAV:   1    -0.627615176649E+03   -0.35316E-03   -0.36889E-02 10752   0.377E-01    0.658E-02
DAV:   2    -0.627615253250E+03   -0.76600E-04   -0.10044E-03 12168   0.698E-02    0.481E-02
DAV:   3    -0.627615246596E+03    0.66537E-05   -0.48699E-05  6012   0.221E-02
 111 F= -.62761525E+03 E0= -.62761525E+03  d E =-.416329E-03  mag=    20.0000
       N       E                     dE             d eps       ncg     rms          rms(c)
DAV:   1    -0.627615653566E+03   -0.40032E-03   -0.46586E-01 10752   0.133E+00    0.160E-01
DAV:   2    -0.627616720880E+03   -0.10673E-02   -0.12458E-02 13188   0.232E-01    0.116E-01
DAV:   3    -0.627616698447E+03    0.22434E-04   -0.56525E-04 12180   0.575E-02
 112 F= -.62761670E+03 E0= -.62761670E+03  d E =-.145185E-02  mag=    20.0000
       N       E                     dE             d eps       ncg     rms          rms(c)
DAV:   1    -0.627615853889E+03    0.86699E-03   -0.83650E-02 10752   0.569E-01    0.752E-02
DAV:   2    -0.627616081092E+03   -0.22720E-03   -0.26417E-03 13104   0.110E-01    0.540E-02
DAV:   3    -0.627616075016E+03    0.60758E-05   -0.10209E-04  6756   0.324E-02
 113 F= -.62761608E+03 E0= -.62761608E+03  d E =0.623430E-03  mag=    20.0000
       N       E                     dE             d eps       ncg     rms          rms(c)
DAV:   1    -0.627616548326E+03   -0.46723E-03   -0.24803E-01 10752   0.979E-01    0.148E-01
DAV:   2    -0.627617079987E+03   -0.53166E-03   -0.70994E-03 12960   0.182E-01    0.108E-01
DAV:   3    -0.627617071819E+03    0.81673E-05   -0.29228E-04  9096   0.517E-02
 114 F= -.62761707E+03 E0= -.62761707E+03  d E =-.996803E-03  mag=    20.0000
       N       E                     dE             d eps       ncg     rms          rms(c)
DAV:   1    -0.627617209759E+03   -0.12977E-03   -0.43850E-03 10716   0.130E-01    0.365E-02
DAV:   2    -0.627617209232E+03    0.52713E-06   -0.15803E-04  6408   0.305E-02
 115 F= -.62761721E+03 E0= -.62761721E+03  d E =-.137412E-03  mag=    20.0000
       N       E                     dE             d eps       ncg     rms          rms(c)
DAV:   1    -0.627617790367E+03   -0.58061E-03   -0.29945E-01 10752   0.108E+00    0.198E-01
DAV:   2    -0.627618309444E+03   -0.51908E-03   -0.91449E-03 13548   0.210E-01    0.135E-01
DAV:   3    -0.627618279383E+03    0.30061E-04   -0.55951E-04 12252   0.670E-02
 116 F= -.62761828E+03 E0= -.62761828E+03  d E =-.107015E-02  mag=    20.0000
       N       E                     dE             d eps       ncg     rms          rms(c)
DAV:   1    -0.627618583001E+03   -0.27356E-03   -0.37322E-02 10752   0.377E-01    0.682E-02
DAV:   2    -0.627618680093E+03   -0.97093E-04   -0.10778E-03 12888   0.751E-02    0.627E-02
DAV:   3    -0.627618674153E+03    0.59405E-05   -0.43809E-05  5916   0.221E-02
 117 F= -.62761867E+03 E0= -.62761867E+03  d E =-.394770E-03  mag=    20.0000
       N       E                     dE             d eps       ncg     rms          rms(c)
DAV:   1    -0.627617900498E+03    0.77960E-03   -0.72287E-02 10752   0.525E-01    0.661E-02
DAV:   2    -0.627618108300E+03   -0.20780E-03   -0.19230E-03 11892   0.904E-02    0.335E-02
DAV:   3    -0.627618115480E+03   -0.71802E-05   -0.43128E-05  5652   0.158E-02
 118 F= -.62761812E+03 E0= -.62761812E+03  d E =0.558672E-03  mag=    20.0000
       N       E                     dE             d eps       ncg     rms          rms(c)
DAV:   1    -0.627618560151E+03   -0.45185E-03   -0.37115E-02 10932   0.414E-01    0.208E-01
DAV:   2    -0.627618022516E+03    0.53764E-03   -0.34170E-03 15744   0.149E-01    0.160E-01
DAV:   3    -0.627617924337E+03    0.98179E-04   -0.64244E-04 12060   0.693E-02
 119 F= -.62761792E+03 E0= -.62761792E+03  d E =0.191143E-03  mag=    20.0000
       N       E                     dE             d eps       ncg     rms          rms(c)
DAV:   1    -0.627618299124E+03   -0.27661E-03   -0.27454E-01 10752   0.102E+00    0.119E-01
DAV:   2    -0.627619030203E+03   -0.73108E-03   -0.71981E-03 12240   0.175E-01    0.639E-02
DAV:   3    -0.627619036060E+03   -0.58568E-05   -0.22036E-04  8496   0.368E-02
 120 F= -.62761904E+03 E0= -.62761904E+03  d E =-.111172E-02  mag=    20.0000
       N       E                     dE             d eps       ncg     rms          rms(c)
DAV:   1    -0.627619567852E+03   -0.53765E-03   -0.98668E-02 10752   0.620E-01    0.111E-01
DAV:   2    -0.627619705302E+03   -0.13745E-03   -0.29731E-03 14028   0.121E-01    0.852E-02
DAV:   3    -0.627619678865E+03    0.26437E-04   -0.15881E-04  7896   0.412E-02
 121 F= -.62761968E+03 E0= -.62761968E+03  d E =-.642805E-03  mag=    20.0000
       N       E                     dE             d eps       ncg     rms          rms(c)
DAV:   1    -0.627619778974E+03   -0.73672E-04   -0.28813E-03 10152   0.104E-01    0.338E-02
DAV:   2    -0.627619781547E+03   -0.25734E-05   -0.74509E-05  5736   0.224E-02
 122 F= -.62761978E+03 E0= -.62761978E+03  d E =-.102682E-03  mag=    20.0000
       N       E                     dE             d eps       ncg     rms          rms(c)
DAV:   1    -0.627620031028E+03   -0.25205E-03   -0.24303E-02 10752   0.308E-01    0.510E-02
DAV:   2    -0.627620084446E+03   -0.53418E-04   -0.67510E-04 10896   0.595E-02
 123 F= -.62762008E+03 E0= -.62762008E+03  d E =-.302899E-03  mag=    20.0000
       N       E                     dE             d eps       ncg     rms          rms(c)
DAV:   1    -0.627620501047E+03   -0.47002E-03   -0.10442E-01 10752   0.632E-01    0.961E-02
DAV:   2    -0.627620751580E+03   -0.25053E-03   -0.28095E-03 12708   0.111E-01    0.533E-02
DAV:   3    -0.627620751425E+03    0.15522E-06   -0.99027E-05  7044   0.290E-02
 124 F= -.62762075E+03 E0= -.62762075E+03  d E =-.666979E-03  mag=    20.0000
       N       E                     dE             d eps       ncg     rms          rms(c)
DAV:   1    -0.627621199621E+03   -0.44804E-03   -0.90922E-02 10752   0.589E-01    0.866E-02
DAV:   2    -0.627621360244E+03   -0.16062E-03   -0.23762E-03 13032   0.102E-01    0.519E-02
DAV:   3    -0.627621345587E+03    0.14658E-04   -0.84900E-05  7020   0.275E-02
 125 F= -.62762135E+03 E0= -.62762135E+03  d E =-.594162E-03  mag=    20.0000
       N       E                     dE             d eps       ncg     rms          rms(c)
DAV:   1    -0.627621734222E+03   -0.37398E-03   -0.24788E-01 10752   0.974E-01    0.115E-01
DAV:   2    -0.627622334947E+03   -0.60072E-03   -0.66279E-03 12864   0.170E-01    0.829E-02
DAV:   3    -0.627622317943E+03    0.17004E-04   -0.20738E-04  7884   0.383E-02
 126 F= -.62762232E+03 E0= -.62762232E+03  d E =-.972356E-03  mag=    20.0000
       N       E                     dE             d eps       ncg     rms          rms(c)
DAV:   1    -0.627622777632E+03   -0.44269E-03   -0.12614E-01 10752   0.694E-01    0.107E-01
DAV:   2    -0.627623050687E+03   -0.27305E-03   -0.36625E-03 13944   0.134E-01    0.926E-02
DAV:   3    -0.627623019826E+03    0.30861E-04   -0.18001E-04  7704   0.411E-02
 127 F= -.62762302E+03 E0= -.62762302E+03  d E =-.701883E-03  mag=    20.0000
       N       E                     dE             d eps       ncg     rms          rms(c)
DAV:   1    -0.627623374961E+03   -0.32427E-03   -0.65755E-02 10752   0.500E-01    0.830E-02
DAV:   2    -0.627623501705E+03   -0.12674E-03   -0.16547E-03 13044   0.877E-02    0.512E-02
DAV:   3    -0.627623493977E+03    0.77279E-05   -0.66299E-05  6696   0.268E-02
 128 F= -.62762349E+03 E0= -.62762349E+03  d E =-.474151E-03  mag=    20.0000
       N       E                     dE             d eps       ncg     rms          rms(c)
DAV:   1    -0.627623760355E+03   -0.25865E-03   -0.31350E-02 10752   0.346E-01    0.477E-02
DAV:   2    -0.627623839194E+03   -0.78840E-04   -0.89798E-04 11484   0.654E-02
 129 F= -.62762384E+03 E0= -.62762384E+03  d E =-.345217E-03  mag=    20.0000
       N       E                     dE             d eps       ncg     rms          rms(c)
DAV:   1    -0.627623948664E+03   -0.18831E-03   -0.47848E-01 10752   0.135E+00    0.176E-01
DAV:   2    -0.627625195388E+03   -0.12467E-02   -0.12165E-02 12396   0.226E-01    0.106E-01
DAV:   3    -0.627625214135E+03   -0.18747E-04   -0.43132E-04 10824   0.473E-02
 130 F= -.62762521E+03 E0= -.62762521E+03  d E =-.137494E-02  mag=    20.0000
       N       E                     dE             d eps       ncg     rms          rms(c)
DAV:   1    -0.627625002666E+03    0.19272E-03   -0.83562E-03 10728   0.177E-01    0.568E-02
DAV:   2    -0.627625027632E+03   -0.24966E-04   -0.28846E-04  7932   0.410E-02
 131 F= -.62762503E+03 E0= -.62762503E+03  d E =0.186503E-03  mag=    20.0000
       N       E                     dE             d eps       ncg     rms          rms(c)
DAV:   1    -0.627624947089E+03    0.55577E-04   -0.17660E-02 10776   0.269E-01    0.115E-01
DAV:   2    -0.627624888710E+03    0.58379E-04   -0.86570E-04 12720   0.806E-02
 132 F= -.62762489E+03 E0= -.62762489E+03  d E =0.138922E-03  mag=    20.0000
       N       E                     dE             d eps       ncg     rms          rms(c)
DAV:   1    -0.627625095229E+03   -0.14814E-03   -0.36414E-01 10752   0.118E+00    0.138E-01
DAV:   2    -0.627626010144E+03   -0.91492E-03   -0.95012E-03 12864   0.206E-01    0.905E-02
DAV:   3    -0.627626023452E+03   -0.13307E-04   -0.49954E-04 11424   0.535E-02
 133 F= -.62762602E+03 E0= -.62762602E+03  d E =-.113474E-02  mag=    20.0000
       N       E                     dE             d eps       ncg     rms          rms(c)
DAV:   1    -0.627626362057E+03   -0.35191E-03   -0.14360E-01 10752   0.751E-01    0.204E-01
DAV:   2    -0.627626550318E+03   -0.18826E-03   -0.50703E-03 14448   0.174E-01    0.150E-01
DAV:   3    -0.627626539121E+03    0.11197E-04   -0.40029E-04 10560   0.692E-02
 134 F= -.62762654E+03 E0= -.62762654E+03  d E =-.515670E-03  mag=    20.0000
       N       E                     dE             d eps       ncg     rms          rms(c)
DAV:   1    -0.627626898311E+03   -0.34799E-03   -0.75859E-02 10752   0.538E-01    0.968E-02
DAV:   2    -0.627627121203E+03   -0.22289E-03   -0.25228E-03 14232   0.114E-01    0.907E-02
DAV:   3    -0.627627097352E+03    0.23852E-04   -0.11951E-04  6852   0.378E-02
 135 F= -.62762710E+03 E0= -.62762710E+03  d E =-.558231E-03  mag=    20.0000
       N       E                     dE             d eps       ncg     rms          rms(c)
DAV:   1    -0.627627333289E+03   -0.21209E-03   -0.98416E-02 10752   0.614E-01    0.134E-01
DAV:   2    -0.627627542051E+03   -0.20876E-03   -0.26248E-03 12948   0.122E-01    0.982E-02
DAV:   3    -0.627627544823E+03   -0.27720E-05   -0.16328E-04  8064   0.416E-02
 136 F= -.62762754E+03 E0= -.62762754E+03  d E =-.447471E-03  mag=    20.0000
       N       E                     dE             d eps       ncg     rms          rms(c)
DAV:   1    -0.627627883141E+03   -0.34109E-03   -0.13995E-02 11532   0.256E-01    0.178E-01
DAV:   2    -0.627627541753E+03    0.34139E-03   -0.24599E-03 15900   0.126E-01    0.134E-01
DAV:   3    -0.627627468731E+03    0.73021E-04   -0.39118E-04 10776   0.596E-02
 137 F= -.62762747E+03 E0= -.62762747E+03  d E =0.760916E-04  mag=    20.0000
       N       E                     dE             d eps       ncg     rms          rms(c)
DAV:   1    -0.627628150535E+03   -0.60878E-03   -0.55116E-02 10752   0.475E-01    0.163E-01
DAV:   2    -0.627628046022E+03    0.10451E-03   -0.28234E-03 15816   0.140E-01    0.133E-01
DAV:   3    -0.627628017383E+03    0.28640E-04   -0.27131E-04  9252   0.570E-02
 138 F= -.62762802E+03 E0= -.62762802E+03  d E =-.548652E-03  mag=    20.0000
       N       E                     dE             d eps       ncg     rms          rms(c)
DAV:   1    -0.627628369595E+03   -0.32357E-03   -0.22179E-01 10752   0.927E-01    0.156E-01
DAV:   2    -0.627628753401E+03   -0.38381E-03   -0.64467E-03 13452   0.173E-01    0.941E-02
DAV:   3    -0.627628722096E+03    0.31305E-04   -0.30191E-04  9864   0.530E-02
 139 F= -.62762872E+03 E0= -.62762872E+03  d E =-.704713E-03  mag=    20.0000
       N       E                     dE             d eps       ncg     rms          rms(c)
DAV:   1    -0.627628943089E+03   -0.18969E-03   -0.10084E-02 10980   0.198E-01    0.466E-02
DAV:   2    -0.627628942979E+03    0.11019E-06   -0.28346E-04  7728   0.406E-02
 140 F= -.62762894E+03 E0= -.62762894E+03  d E =-.220883E-03  mag=    20.0000
       N       E                     dE             d eps       ncg     rms          rms(c)
DAV:   1    -0.627629188113E+03   -0.24502E-03   -0.91858E-02 10752   0.592E-01    0.974E-02
DAV:   2    -0.627629430096E+03   -0.24198E-03   -0.25655E-03 13824   0.120E-01    0.878E-02
DAV:   3    -0.627629430532E+03   -0.43577E-06   -0.17442E-04  7500   0.398E-02
 141 F= -.62762943E+03 E0= -.62762943E+03  d E =-.487552E-03  mag=    20.0000
       N       E                     dE             d eps       ncg     rms          rms(c)
DAV:   1    -0.627630571629E+03   -0.11415E-02   -0.72260E-02 11352   0.582E-01    0.318E-01
DAV:   2    -0.627629209138E+03    0.13625E-02   -0.79441E-03 15840   0.215E-01    0.203E-01
DAV:   3    -0.627629016422E+03    0.19272E-03   -0.15553E-03 15240   0.114E-01    0.835E-02
DAV:   4    -0.627628958968E+03    0.57454E-04   -0.19825E-04  8376   0.407E-02
 142 F= -.62762896E+03 E0= -.62762896E+03  d E =0.471563E-03  mag=    20.0000
       N       E                     dE             d eps       ncg     rms          rms(c)
DAV:   1    -0.627630021172E+03   -0.10047E-02   -0.47537E-02 10764   0.440E-01    0.196E-01
DAV:   2    -0.627629672021E+03    0.34915E-03   -0.33317E-03 15576   0.146E-01    0.125E-01
DAV:   3    -0.627629609828E+03    0.62192E-04   -0.54194E-04 11652   0.756E-02
 143 F= -.62762961E+03 E0= -.62762961E+03  d E =-.650860E-03  mag=    20.0000
       N       E                     dE             d eps       ncg     rms          rms(c)
DAV:   1    -0.627630227832E+03   -0.55581E-03   -0.21247E-01 10752   0.915E-01    0.186E-01
DAV:   2    -0.627630382875E+03   -0.15504E-03   -0.71691E-03 14244   0.188E-01    0.127E-01
DAV:   3    -0.627630315352E+03    0.67523E-04   -0.60353E-04 12228   0.716E-02
 144 F= -.62763032E+03 E0= -.62763032E+03  d E =-.705524E-03  mag=    20.0000
       N       E                     dE             d eps       ncg     rms          rms(c)
DAV:   1    -0.627630607501E+03   -0.22463E-03   -0.51732E-02 10812   0.443E-01    0.560E-02
DAV:   2    -0.627630728058E+03   -0.12056E-03   -0.13406E-03 12240   0.781E-02    0.392E-02
DAV:   3    -0.627630724270E+03    0.37877E-05   -0.60480E-05  6108   0.204E-02
 145 F= -.62763072E+03 E0= -.62763072E+03  d E =-.408918E-03  mag=    20.0000
[...]
       N       E                     dE             d eps       ncg     rms          rms(c)
DAV:   1    -0.627658753388E+03    0.28193E-04   -0.59159E-02 10752   0.476E-01    0.713E-02
DAV:   2    -0.627658912733E+03   -0.15935E-03   -0.19080E-03 13320   0.950E-02    0.733E-02
DAV:   3    -0.627658905608E+03    0.71250E-05   -0.84740E-05  6612   0.244E-02
 270 F= -.62765891E+03 E0= -.62765891E+03  d E =-.155676E-03  mag=    20.0000
       N       E                     dE             d eps       ncg     rms          rms(c)
DAV:   1    -0.627658989841E+03   -0.77108E-04   -0.19840E-02 10752   0.268E-01    0.636E-02
DAV:   2    -0.627659033969E+03   -0.44127E-04   -0.97299E-04 12768   0.678E-02
 271 F= -.62765903E+03 E0= -.62765903E+03  d E =-.128360E-03  mag=    20.0000
       N       E                     dE             d eps       ncg     rms          rms(c)
DAV:   1    -0.627659086578E+03   -0.96737E-04   -0.41643E-02 10752   0.398E-01    0.559E-02
DAV:   2    -0.627659209741E+03   -0.12316E-03   -0.14547E-03 13980   0.813E-02    0.518E-02
DAV:   3    -0.627659195207E+03    0.14534E-04   -0.62307E-05  6312   0.226E-02
 272 F= -.62765920E+03 E0= -.62765920E+03  d E =-.161238E-03  mag=    20.0000
       N       E                     dE             d eps       ncg     rms          rms(c)
DAV:   1    -0.627659210236E+03   -0.49530E-06   -0.63528E-04  9648   0.493E-02    0.217E-02
DAV:   2    -0.627659209825E+03    0.41140E-06   -0.21156E-05  5592   0.126E-02
 273 F= -.62765921E+03 E0= -.62765921E+03  d E =-.146179E-04  mag=    20.0000
       N       E                     dE             d eps       ncg     rms          rms(c)
DAV:   1    -0.627659149390E+03    0.60846E-04   -0.92578E-02 10752   0.592E-01    0.803E-02
DAV:   2    -0.627659388620E+03   -0.23923E-03   -0.29430E-03 14076   0.118E-01    0.848E-02
DAV:   3    -0.627659375828E+03    0.12792E-04   -0.11039E-04  6480   0.308E-02
 274 F= -.62765938E+03 E0= -.62765938E+03  d E =-.166004E-03  mag=    20.0000
       N       E                     dE             d eps       ncg     rms          rms(c)
DAV:   1    -0.627659626045E+03   -0.23742E-03   -0.30049E-02 10776   0.342E-01    0.106E-01
DAV:   2    -0.627659576784E+03    0.49261E-04   -0.18266E-03 15420   0.108E-01    0.101E-01
DAV:   3    -0.627659552578E+03    0.24206E-04   -0.14338E-04  6936   0.416E-02
 275 F= -.62765955E+03 E0= -.62765955E+03  d E =-.176750E-03  mag=    20.0000
       N       E                     dE             d eps       ncg     rms          rms(c)
DAV:   1    -0.627659641282E+03   -0.64498E-04   -0.39091E-02 10752   0.386E-01    0.531E-02
DAV:   2    -0.627659723718E+03   -0.82436E-04   -0.11523E-03 12756   0.710E-02    0.337E-02
DAV:   3    -0.627659716391E+03    0.73274E-05   -0.47949E-05  6324   0.212E-02
 276 F= -.62765972E+03 E0= -.62765972E+03  d E =-.163812E-03  mag=    20.0000
       N       E                     dE             d eps       ncg     rms          rms(c)
DAV:   1    -0.627659856558E+03   -0.13284E-03   -0.17396E-02 10884   0.263E-01    0.643E-02
DAV:   2    -0.627659845255E+03    0.11303E-04   -0.62624E-04 11400   0.580E-02
 277 F= -.62765985E+03 E0= -.62765985E+03  d E =-.128864E-03  mag=    20.0000
       N       E                     dE             d eps       ncg     rms          rms(c)
DAV:   1    -0.627659986768E+03   -0.13021E-03   -0.31228E-02 11016   0.353E-01    0.978E-02
DAV:   2    -0.627659970130E+03    0.16637E-04   -0.13076E-03 13764   0.831E-02    0.735E-02
DAV:   3    -0.627659949612E+03    0.20519E-04   -0.12105E-04  7416   0.367E-02
 278 F= -.62765995E+03 E0= -.62765995E+03  d E =-.104357E-03  mag=    20.0000
       N       E                     dE             d eps       ncg     rms          rms(c)
DAV:   1    -0.627660016937E+03   -0.46807E-04   -0.67125E-03 10728   0.160E-01    0.326E-02
DAV:   2    -0.627660027471E+03   -0.10534E-04   -0.15437E-04  6480   0.289E-02
 279 F= -.62766003E+03 E0= -.62766003E+03  d E =-.778592E-04  mag=    20.0000
       N       E                     dE             d eps       ncg     rms          rms(c)
DAV:   1    -0.627660022764E+03   -0.58270E-05   -0.16729E-02 10752   0.255E-01    0.497E-02
DAV:   2    -0.627660069159E+03   -0.46395E-04   -0.56443E-04 11712   0.641E-02
 280 F= -.62766007E+03 E0= -.62766007E+03  d E =-.416881E-04  mag=    20.0000
       N       E                     dE             d eps       ncg     rms          rms(c)
DAV:   1    -0.627660142198E+03   -0.11943E-03   -0.56094E-02 10752   0.466E-01    0.797E-02
DAV:   2    -0.627660262024E+03   -0.11983E-03   -0.19332E-03 14916   0.114E-01    0.859E-02
DAV:   3    -0.627660260301E+03    0.17228E-05   -0.13233E-04  6624   0.353E-02
 281 F= -.62766026E+03 E0= -.62766026E+03  d E =-.191142E-03  mag=    20.0000
       N       E                     dE             d eps       ncg     rms          rms(c)
DAV:   1    -0.627660282115E+03   -0.20091E-04   -0.33427E-04  8748   0.415E-02    0.325E-02
DAV:   2    -0.627660273230E+03    0.88852E-05   -0.45898E-05  5952   0.193E-02
 282 F= -.62766027E+03 E0= -.62766027E+03  d E =-.129291E-04  mag=    20.0000
       N       E                     dE             d eps       ncg     rms          rms(c)
DAV:   1    -0.627660345137E+03   -0.63021E-04   -0.35457E-02 10752   0.367E-01    0.525E-02
DAV:   2    -0.627660418441E+03   -0.73305E-04   -0.10037E-03 12672   0.719E-02    0.422E-02
DAV:   3    -0.627660416758E+03    0.16828E-05   -0.73275E-05  6168   0.217E-02
 283 F= -.62766042E+03 E0= -.62766042E+03  d E =-.143528E-03  mag=    20.0000
       N       E                     dE             d eps       ncg     rms          rms(c)
DAV:   1    -0.627660536022E+03   -0.11758E-03   -0.34727E-02 10752   0.367E-01    0.754E-02
DAV:   2    -0.627660584067E+03   -0.48044E-04   -0.11667E-03 13260   0.813E-02    0.567E-02
DAV:   3    -0.627660578419E+03    0.56477E-05   -0.99405E-05  6696   0.335E-02
 284 F= -.62766058E+03 E0= -.62766058E+03  d E =-.161661E-03  mag=    20.0000
       N       E                     dE             d eps       ncg     rms          rms(c)
DAV:   1    -0.627660636850E+03   -0.52783E-04   -0.76936E-03 10692   0.171E-01    0.269E-02
DAV:   2    -0.627660648092E+03   -0.11242E-04   -0.18775E-04  6996   0.306E-02
 285 F= -.62766065E+03 E0= -.62766065E+03  d E =-.696727E-04  mag=    20.0000
       N       E                     dE             d eps       ncg     rms          rms(c)
DAV:   1    -0.627660728330E+03   -0.91480E-04   -0.27158E-02 10752   0.322E-01    0.615E-02
DAV:   2    -0.627660786181E+03   -0.57851E-04   -0.78899E-04 11868   0.588E-02
 286 F= -.62766079E+03 E0= -.62766079E+03  d E =-.138089E-03  mag=    20.0000
       N       E                     dE             d eps       ncg     rms          rms(c)
DAV:   1    -0.627660839764E+03   -0.11143E-03   -0.14972E-02 10752   0.237E-01    0.521E-02
DAV:   2    -0.627660877743E+03   -0.37978E-04   -0.42938E-04  9540   0.487E-02
 287 F= -.62766088E+03 E0= -.62766088E+03  d E =-.915619E-04  mag=    20.0000
       N       E                     dE             d eps       ncg     rms          rms(c)
DAV:   1    -0.627660925023E+03   -0.85258E-04   -0.71932E-03 10668   0.164E-01    0.336E-02
DAV:   2    -0.627660943746E+03   -0.18724E-04   -0.17076E-04  6768   0.299E-02
 288 F= -.62766094E+03 E0= -.62766094E+03  d E =-.660033E-04  mag=    20.0000
       N       E                     dE             d eps       ncg     rms          rms(c)
DAV:   1    -0.627660848608E+03    0.76415E-04   -0.67858E-03 10692   0.161E-01    0.297E-02
DAV:   2    -0.627660864130E+03   -0.15522E-04   -0.18635E-04  6864   0.342E-02
 289 F= -.62766086E+03 E0= -.62766086E+03  d E =0.796160E-04  mag=    20.0000
       N       E                     dE             d eps       ncg     rms          rms(c)
DAV:   1    -0.627661032447E+03   -0.18384E-03   -0.67417E-02 10752   0.511E-01    0.871E-02
DAV:   2    -0.627661117164E+03   -0.84718E-04   -0.21579E-03 13944   0.105E-01    0.652E-02
DAV:   3    -0.627661104441E+03    0.12723E-04   -0.12415E-04  7056   0.360E-02
 290 F= -.62766110E+03 E0= -.62766110E+03  d E =-.240311E-03  mag=    20.0000
       N       E                     dE             d eps       ncg     rms          rms(c)
DAV:   1    -0.627661186503E+03   -0.69338E-04   -0.28875E-02 10752   0.332E-01    0.516E-02
DAV:   2    -0.627661232529E+03   -0.46026E-04   -0.81334E-04 11736   0.600E-02
 291 F= -.62766123E+03 E0= -.62766123E+03  d E =-.128088E-03  mag=    20.0000
       N       E                     dE             d eps       ncg     rms          rms(c)
DAV:   1    -0.627661282880E+03   -0.96377E-04   -0.76747E-02 10752   0.536E-01    0.559E-02
DAV:   2    -0.627661465793E+03   -0.18291E-03   -0.20053E-03 13512   0.908E-02    0.377E-02
DAV:   3    -0.627661458608E+03    0.71851E-05   -0.52200E-05  6060   0.183E-02
 292 F= -.62766146E+03 E0= -.62766146E+03  d E =-.226079E-03  mag=    20.0000
       N       E                     dE             d eps       ncg     rms          rms(c)
DAV:   1    -0.627661169245E+03    0.29655E-03   -0.44448E-02 10752   0.411E-01    0.407E-02
DAV:   2    -0.627661287468E+03   -0.11822E-03   -0.12398E-03 11436   0.730E-02    0.201E-02
DAV:   3    -0.627661288369E+03   -0.90144E-06   -0.27594E-05  5580   0.149E-02
 293 F= -.62766129E+03 E0= -.62766129E+03  d E =0.170239E-03  mag=    20.0000
       N       E                     dE             d eps       ncg     rms          rms(c)
DAV:   1    -0.627660756601E+03    0.53087E-03   -0.42544E-01 10752   0.127E+00    0.125E-01
DAV:   2    -0.627661831308E+03   -0.10747E-02   -0.11372E-02 12792   0.219E-01    0.825E-02
DAV:   3    -0.627661828670E+03    0.26380E-05   -0.41157E-04 10500   0.453E-02
 294 F= -.62766183E+03 E0= -.62766183E+03  d E =-.540301E-03  mag=    20.0000
       N       E                     dE             d eps       ncg     rms          rms(c)
DAV:   1    -0.627661643591E+03    0.18772E-03   -0.23222E-02 10752   0.301E-01    0.458E-02
DAV:   2    -0.627661704253E+03   -0.60662E-04   -0.79964E-04 11172   0.629E-02
 295 F= -.62766170E+03 E0= -.62766170E+03  d E =0.124417E-03  mag=    20.0000
       N       E                     dE             d eps       ncg     rms          rms(c)
DAV:   1    -0.627661740969E+03   -0.97377E-04   -0.68824E-02 10752   0.510E-01    0.573E-02
DAV:   2    -0.627661911193E+03   -0.17022E-03   -0.17961E-03 12192   0.859E-02    0.346E-02
DAV:   3    -0.627661909445E+03    0.17483E-05   -0.42096E-05  5868   0.180E-02
 296 F= -.62766191E+03 E0= -.62766191E+03  d E =-.205192E-03  mag=    20.0000
       N       E                     dE             d eps       ncg     rms          rms(c)
DAV:   1    -0.627661991314E+03   -0.80121E-04   -0.20055E-02 10752   0.277E-01    0.444E-02
DAV:   2    -0.627662021906E+03   -0.30591E-04   -0.53543E-04 10260   0.493E-02
 297 F= -.62766202E+03 E0= -.62766202E+03  d E =-.112461E-03  mag=    20.0000
       N       E                     dE             d eps       ncg     rms          rms(c)
DAV:   1    -0.627662071776E+03   -0.80461E-04   -0.32634E-02 10752   0.353E-01    0.779E-02
DAV:   2    -0.627662145073E+03   -0.73297E-04   -0.10453E-03 12720   0.713E-02    0.543E-02
DAV:   3    -0.627662141957E+03    0.31159E-05   -0.61666E-05  6432   0.258E-02
 298 F= -.62766214E+03 E0= -.62766214E+03  d E =-.120051E-03  mag=    20.0000
       N       E                     dE             d eps       ncg     rms          rms(c)
DAV:   1    -0.627662197629E+03   -0.52556E-04   -0.17097E-02 10752   0.254E-01    0.371E-02
DAV:   2    -0.627662230780E+03   -0.33151E-04   -0.41608E-04  8592   0.435E-02
 299 F= -.62766223E+03 E0= -.62766223E+03  d E =-.888230E-04  mag=    20.0000
       N       E                     dE             d eps       ncg     rms          rms(c)
DAV:   1    -0.627662118765E+03    0.78864E-04   -0.13834E-01 10752   0.725E-01    0.140E-01
DAV:   2    -0.627662492786E+03   -0.37402E-03   -0.40790E-03 13536   0.139E-01    0.921E-02
DAV:   3    -0.627662497432E+03   -0.46454E-05   -0.18612E-04  8100   0.450E-02
 300 F= -.62766250E+03 E0= -.62766250E+03  d E =-.266652E-03  mag=    20.0000
       N       E                     dE             d eps       ncg     rms          rms(c)
DAV:   1    -0.627662412586E+03    0.80200E-04   -0.87964E-03 10728   0.168E-01    0.686E-02
DAV:   2    -0.627662465109E+03   -0.52522E-04   -0.25308E-04  8244   0.429E-02
 301 F= -.62766247E+03 E0= -.62766247E+03  d E =0.323231E-04  mag=    20.0000
       N       E                     dE             d eps       ncg     rms          rms(c)
DAV:   1    -0.627662486385E+03   -0.73799E-04   -0.31134E-04  8496   0.371E-02    0.311E-02
DAV:   2    -0.627662487085E+03   -0.69976E-06   -0.21405E-05  5628   0.143E-02
 302 F= -.62766249E+03 E0= -.62766249E+03  d E =-.219763E-04  mag=    20.0000
       N       E                     dE             d eps       ncg     rms          rms(c)
DAV:   1    -0.627662555669E+03   -0.69284E-04   -0.18700E-02 10752   0.272E-01    0.660E-02
DAV:   2    -0.627662570207E+03   -0.14537E-04   -0.65226E-04 11652   0.591E-02
 303 F= -.62766257E+03 E0= -.62766257E+03  d E =-.831216E-04  mag=    20.0000
       N       E                     dE             d eps       ncg     rms          rms(c)
DAV:   1    -0.627662625636E+03   -0.69967E-04   -0.15854E-02 10752   0.248E-01    0.342E-02
DAV:   2    -0.627662661601E+03   -0.35964E-04   -0.47492E-04 10248   0.517E-02
 304 F= -.62766266E+03 E0= -.62766266E+03  d E =-.913942E-04  mag=    20.0000
       N       E                     dE             d eps       ncg     rms          rms(c)
DAV:   1    -0.627662722157E+03   -0.96521E-04   -0.81292E-03 10992   0.180E-01    0.418E-02
DAV:   2    -0.627662720531E+03    0.16265E-05   -0.26151E-04  7164   0.395E-02
 305 F= -.62766272E+03 E0= -.62766272E+03  d E =-.589301E-04  mag=    20.0000
       N       E                     dE             d eps       ncg     rms          rms(c)
DAV:   1    -0.627662709764E+03    0.12393E-04   -0.77056E-04  9900   0.579E-02    0.187E-02
DAV:   2    -0.627662706137E+03    0.36268E-05   -0.31243E-05  5616   0.169E-02
 306 F= -.62766271E+03 E0= -.62766271E+03  d E =0.143938E-04  mag=    20.0000
       N       E                     dE             d eps       ncg     rms          rms(c)
DAV:   1    -0.627662761408E+03   -0.51644E-04   -0.34328E-02 10752   0.362E-01    0.490E-02
DAV:   2    -0.627662836265E+03   -0.74857E-04   -0.10412E-03 11988   0.716E-02    0.456E-02
DAV:   3    -0.627662830571E+03    0.56945E-05   -0.51423E-05  5856   0.223E-02
 307 F= -.62766283E+03 E0= -.62766283E+03  d E =-.124434E-03  mag=    20.0000
       N       E                     dE             d eps       ncg     rms          rms(c)
DAV:   1    -0.627662943103E+03   -0.10684E-03   -0.27661E-03 12132   0.118E-01    0.792E-02
DAV:   2    -0.627662855999E+03    0.87104E-04   -0.67106E-04 12300   0.621E-02
 308 F= -.62766286E+03 E0= -.62766286E+03  d E =-.254285E-04  mag=    20.0000
       N       E                     dE             d eps       ncg     rms          rms(c)
DAV:   1    -0.627662942137E+03    0.96567E-06   -0.27235E-02 10752   0.330E-01    0.665E-02
DAV:   2    -0.627662959600E+03   -0.17462E-04   -0.98927E-04 13080   0.739E-02
 309 F= -.62766296E+03 E0= -.62766296E+03  d E =-.103601E-03  mag=    20.0000
       N       E                     dE             d eps       ncg     rms          rms(c)
DAV:   1    -0.627662992374E+03   -0.50237E-04   -0.20462E-02 10752   0.280E-01    0.528E-02
DAV:   2    -0.627663037538E+03   -0.45164E-04   -0.72360E-04 11748   0.623E-02
 310 F= -.62766304E+03 E0= -.62766304E+03  d E =-.779382E-04  mag=    20.0000
       N       E                     dE             d eps       ncg     rms          rms(c)
DAV:   1    -0.627663066539E+03   -0.74164E-04   -0.17706E-03  9996   0.841E-02    0.264E-02
DAV:   2    -0.627663065284E+03    0.12545E-05   -0.85201E-05  6480   0.246E-02
 311 F= -.62766307E+03 E0= -.62766307E+03  d E =-.277463E-04  mag=    20.0000
       N       E                     dE             d eps       ncg     rms          rms(c)
DAV:   1    -0.627663033364E+03    0.33175E-04   -0.20642E-03 10296   0.945E-02    0.339E-02
DAV:   2    -0.627663026510E+03    0.68533E-05   -0.79676E-05  5484   0.271E-02
 312 F= -.62766303E+03 E0= -.62766303E+03  d E =0.387739E-04  mag=    20.0000
       N       E                     dE             d eps       ncg     rms          rms(c)
DAV:   1    -0.627663068927E+03   -0.35563E-04   -0.23553E-02 10752   0.300E-01    0.348E-02
DAV:   2    -0.627663129010E+03   -0.60083E-04   -0.65010E-04 10896   0.544E-02
 313 F= -.62766313E+03 E0= -.62766313E+03  d E =-.102499E-03  mag=    20.0000
       N       E                     dE             d eps       ncg     rms          rms(c)
DAV:   1    -0.627663208129E+03   -0.13920E-03   -0.10084E-02 10788   0.198E-01    0.523E-02
DAV:   2    -0.627663196945E+03    0.11184E-04   -0.43525E-04  9564   0.529E-02
 314 F= -.62766320E+03 E0= -.62766320E+03  d E =-.679351E-04  mag=    20.0000
       N       E                     dE             d eps       ncg     rms          rms(c)
DAV:   1    -0.627663339253E+03   -0.13112E-03   -0.80920E-03 11244   0.193E-01    0.100E-01
DAV:   2    -0.627663234982E+03    0.10427E-03   -0.80599E-04 13200   0.727E-02    0.844E-02
DAV:   3    -0.627663210351E+03    0.24631E-04   -0.10510E-04  7296   0.354E-02
 315 F= -.62766321E+03 E0= -.62766321E+03  d E =-.134064E-04  mag=    20.0000
       N       E                     dE             d eps       ncg     rms          rms(c)
DAV:   1    -0.627663324217E+03   -0.89235E-04   -0.99937E-03 11004   0.206E-01    0.678E-02
DAV:   2    -0.627663297650E+03    0.26568E-04   -0.42501E-04 10356   0.592E-02
 316 F= -.62766330E+03 E0= -.62766330E+03  d E =-.872982E-04  mag=    20.0000
       N       E                     dE             d eps       ncg     rms          rms(c)
DAV:   1    -0.627663324592E+03   -0.37502E-06   -0.14309E-02 10956   0.241E-01    0.752E-02
DAV:   2    -0.627663324308E+03    0.28465E-06   -0.65236E-04 11772   0.632E-02
 317 F= -.62766332E+03 E0= -.62766332E+03  d E =-.266580E-04  mag=    20.0000
       N       E                     dE             d eps       ncg     rms          rms(c)
DAV:   1    -0.627663329678E+03   -0.50857E-05   -0.28882E-02 10752   0.334E-01    0.624E-02
DAV:   2    -0.627663409240E+03   -0.79562E-04   -0.13400E-03 14736   0.936E-02    0.708E-02
DAV:   3    -0.627663397903E+03    0.11336E-04   -0.98094E-05  6312   0.305E-02
 318 F= -.62766340E+03 E0= -.62766340E+03  d E =-.735956E-04  mag=    20.0000
       N       E                     dE             d eps       ncg     rms          rms(c)
DAV:   1    -0.627663543793E+03   -0.13455E-03   -0.98145E-03 11064   0.204E-01    0.759E-02
DAV:   2    -0.627663495714E+03    0.48079E-04   -0.67513E-04 12612   0.651E-02
 319 F= -.62766350E+03 E0= -.62766350E+03  d E =-.978107E-04  mag=    20.0000
       N       E                     dE             d eps       ncg     rms          rms(c)
DAV:   1    -0.627663512718E+03    0.31075E-04   -0.24650E-02 10752   0.308E-01    0.423E-02
DAV:   2    -0.627663568638E+03   -0.55919E-04   -0.79846E-04 13104   0.781E-02
 320 F= -.62766357E+03 E0= -.62766357E+03  d E =-.729238E-04  mag=    20.0000
       N       E                     dE             d eps       ncg     rms          rms(c)
DAV:   1    -0.627663615709E+03   -0.10299E-03   -0.26035E-03 10788   0.101E-01    0.349E-02
DAV:   2    -0.627663601723E+03    0.13986E-04   -0.12649E-04  6240   0.344E-02
 321 F= -.62766360E+03 E0= -.62766360E+03  d E =-.330852E-04  mag=    20.0000
       N       E                     dE             d eps       ncg     rms          rms(c)
DAV:   1    -0.627663644569E+03   -0.28860E-04   -0.34043E-02 10776   0.360E-01    0.429E-02
DAV:   2    -0.627663722888E+03   -0.78319E-04   -0.89254E-04 11352   0.599E-02
 322 F= -.62766372E+03 E0= -.62766372E+03  d E =-.121165E-03  mag=    20.0000
