       N       E                     dE             d eps       ncg     rms          rms(c)
DAV:   1     0.551831971595E+04    0.55183E+04   -0.19750E+05 10752   0.125E+03
DAV:   2     0.497243614773E+03   -0.50211E+04   -0.46279E+04 11100   0.349E+02
DAV:   3    -0.723493843479E+03   -0.12207E+04   -0.11830E+04 12660   0.178E+02
DAV:   4    -0.825810941433E+03   -0.10232E+03   -0.10092E+03 16092   0.589E+01
DAV:   5    -0.829582691415E+03   -0.37717E+01   -0.37285E+01 17088   0.127E+01
DAV:   6    -0.829741433632E+03   -0.15874E+00   -0.15771E+00 16956   0.236E+00
DAV:   7    -0.829749411254E+03   -0.79776E-02   -0.79500E-02 17052   0.522E-01
DAV:   8    -0.829749921779E+03   -0.51053E-03   -0.50961E-03 13896   0.118E-01
DAV:   9    -0.829749957494E+03   -0.35715E-04   -0.35652E-04  9960   0.354E-02
DAV:  10    -0.829749961458E+03   -0.39636E-05   -0.39468E-05  8832   0.168E-02
DAV:  11    -0.829749962979E+03   -0.15217E-05   -0.15135E-05  8232   0.115E-02
DAV:  12    -0.829749963857E+03   -0.87739E-06   -0.87389E-06  7968   0.870E-03    0.114E+02
DAV:  13    -0.611711563402E+03    0.21804E+03   -0.12860E+03 15924   0.801E+01    0.755E+01
DAV:  14    -0.628852786310E+03   -0.17141E+02   -0.34798E+02 16896   0.558E+01    0.494E+01
DAV:  15    -0.628725011744E+03    0.12777E+00   -0.51664E+01 15204   0.278E+01    0.324E+01
DAV:  16    -0.628656889169E+03    0.68123E-01   -0.31108E+01 17244   0.261E+01    0.294E+01
DAV:  17    -0.628521552873E+03    0.13534E+00   -0.13831E+01 15792   0.898E+00    0.128E+01
DAV:  18    -0.627991946215E+03    0.52961E+00   -0.40695E+00 16152   0.974E+00    0.609E+00
DAV:  19    -0.627710791107E+03    0.28116E+00   -0.24955E+00 16008   0.425E+00    0.184E+00
DAV:  20    -0.627772463765E+03   -0.61673E-01   -0.45687E-01 13992   0.164E+00    0.217E+00
DAV:  21    -0.627771391916E+03    0.10718E-02   -0.85959E-02 16044   0.103E+00    0.706E-01
DAV:  22    -0.627773988319E+03   -0.25964E-02   -0.30605E-02 15540   0.563E-01    0.441E-01
DAV:  23    -0.627774164606E+03   -0.17629E-03   -0.51126E-03 14532   0.231E-01    0.253E-01
DAV:  24    -0.627774062897E+03    0.10171E-03   -0.27353E-03 16152   0.121E-01    0.165E-01
DAV:  25    -0.627773945137E+03    0.11776E-03   -0.84519E-04 13488   0.758E-02    0.900E-02
DAV:  26    -0.627773933755E+03    0.11382E-04   -0.20221E-04  8076   0.428E-02
   1 F= -.62777393E+03 E0= -.62777393E+03  d E =-.627774E+03  mag=    19.9657
       N       E                     dE             d eps       ncg     rms          rms(c)
DAV:   1    -0.628630035453E+03   -0.85609E+00   -0.26893E+02 10752   0.329E+01    0.107E+01
DAV:   2    -0.628444108266E+03    0.18593E+00   -0.13285E+01 15864   0.937E+00    0.810E+00
DAV:   3    -0.628295464545E+03    0.14864E+00   -0.13374E+00 14796   0.442E+00    0.685E+00
DAV:   4    -0.628273980835E+03    0.21484E-01   -0.17351E-01 16008   0.115E+00    0.524E+00
DAV:   5    -0.628249443713E+03    0.24537E-01   -0.23656E-01 15828   0.130E+00    0.177E+00
DAV:   6    -0.628244771656E+03    0.46721E-02   -0.10859E-01 15180   0.759E-01    0.575E-01
DAV:   7    -0.628243000652E+03    0.17710E-02   -0.23035E-02 14952   0.421E-01    0.358E-01
DAV:   8    -0.628242914738E+03    0.85914E-04   -0.31488E-03 15036   0.133E-01    0.156E-01
DAV:   9    -0.628242791972E+03    0.12277E-03   -0.83119E-04 13920   0.776E-02    0.848E-02
DAV:  10    -0.628242787072E+03    0.48997E-05   -0.53411E-04 11448   0.558E-02
   2 F= -.62824279E+03 E0= -.62824279E+03  d E =-.468853E+00  mag=    19.9773
       N       E                     dE             d eps       ncg     rms          rms(c)
DAV:   1    -0.628759219248E+03   -0.51643E+00   -0.23347E+01 11076   0.104E+01    0.520E+00
DAV:   2    -0.628465511718E+03    0.29371E+00   -0.28700E+00 15720   0.435E+00    0.467E+00
DAV:   3    -0.628383045865E+03    0.82466E-01   -0.63743E-01 15432   0.201E+00    0.212E+00
DAV:   4    -0.628375713415E+03    0.73324E-02   -0.84645E-02 15348   0.605E-01    0.134E+00
DAV:   5    -0.628369804632E+03    0.59088E-02   -0.26216E-02 15648   0.464E-01    0.664E-01
DAV:   6    -0.628368886412E+03    0.91822E-03   -0.10879E-02 15960   0.269E-01    0.224E-01
DAV:   7    -0.628368916286E+03   -0.29874E-04   -0.29322E-03 14604   0.141E-01    0.172E-01
DAV:   8    -0.628368924309E+03   -0.80229E-05   -0.44394E-04 11280   0.771E-02
   3 F= -.62836892E+03 E0= -.62836892E+03  d E =-.126137E+00  mag=    19.9832
       N       E                     dE             d eps       ncg     rms          rms(c)
DAV:   1    -0.628430980200E+03   -0.62064E-01   -0.15659E+01 10752   0.789E+00    0.159E+00
DAV:   2    -0.628467326339E+03   -0.36346E-01   -0.75199E-01 14784   0.227E+00    0.201E+00
DAV:   3    -0.628457826441E+03    0.94999E-02   -0.65911E-02 14316   0.643E-01    0.129E+00
DAV:   4    -0.628452098744E+03    0.57277E-02   -0.33205E-02 13920   0.413E-01    0.877E-01
DAV:   5    -0.628450639529E+03    0.14592E-02   -0.13661E-02 15636   0.323E-01    0.414E-01
DAV:   6    -0.628449937422E+03    0.70211E-03   -0.80782E-03 15660   0.216E-01    0.197E-01
DAV:   7    -0.628449931393E+03    0.60281E-05   -0.23611E-03 15540   0.102E-01    0.123E-01
DAV:   8    -0.628449902196E+03    0.29198E-04   -0.15767E-04  7848   0.563E-02
   4 F= -.62844990E+03 E0= -.62844990E+03  d E =-.809779E-01  mag=    19.9878
       N       E                     dE             d eps       ncg     rms          rms(c)
DAV:   1    -0.628497485302E+03   -0.47554E-01   -0.18762E+01 10776   0.870E+00    0.239E+00
DAV:   2    -0.628476588117E+03    0.20897E-01   -0.83045E-01 13944   0.209E+00    0.170E+00
DAV:   3    -0.628468523362E+03    0.80648E-02   -0.99135E-02 14988   0.908E-01    0.125E+00
DAV:   4    -0.628464930436E+03    0.35929E-02   -0.37421E-02 15384   0.405E-01    0.740E-01
DAV:   5    -0.628463278608E+03    0.16518E-02   -0.10471E-02 16440   0.327E-01    0.339E-01
DAV:   6    -0.628463331299E+03   -0.52691E-04   -0.51992E-03 15864   0.188E-01    0.210E-01
DAV:   7    -0.628463181059E+03    0.15024E-03   -0.10906E-03 14976   0.878E-02    0.718E-02
DAV:   8    -0.628463183565E+03   -0.25059E-05   -0.28641E-04  8592   0.413E-02
   5 F= -.62846318E+03 E0= -.62846318E+03  d E =-.132814E-01  mag=    19.9913
       N       E                     dE             d eps       ncg     rms          rms(c)
DAV:   1    -0.628536469921E+03   -0.73289E-01   -0.75967E+00 10776   0.552E+00    0.144E+00
DAV:   2    -0.628529000268E+03    0.74697E-02   -0.32780E-01 14304   0.141E+00    0.125E+00
DAV:   3    -0.628525513105E+03    0.34872E-02   -0.37676E-02 14928   0.513E-01    0.756E-01
DAV:   4    -0.628522451535E+03    0.30616E-02   -0.20297E-02 15480   0.332E-01    0.438E-01
DAV:   5    -0.628521394562E+03    0.10570E-02   -0.40396E-03 14892   0.211E-01    0.213E-01
DAV:   6    -0.628521392849E+03    0.17126E-05   -0.36630E-03 15924   0.146E-01    0.121E-01
DAV:   7    -0.628521367824E+03    0.25026E-04   -0.88421E-04 13908   0.774E-02
   6 F= -.62852137E+03 E0= -.62852137E+03  d E =-.581843E-01  mag=    19.9934
       N       E                     dE             d eps       ncg     rms          rms(c)
DAV:   1    -0.628501513505E+03    0.19879E-01   -0.28081E+01 10752   0.104E+01    0.137E+00
DAV:   2    -0.628571711583E+03   -0.70198E-01   -0.90827E-01 14268   0.204E+00    0.131E+00
DAV:   3    -0.628568058021E+03    0.36536E-02   -0.43980E-02 14364   0.543E-01    0.782E-01
DAV:   4    -0.628565256492E+03    0.28015E-02   -0.86649E-03 15792   0.276E-01    0.543E-01
DAV:   5    -0.628564450590E+03    0.80590E-03   -0.71756E-03 15756   0.226E-01    0.233E-01
DAV:   6    -0.628564481971E+03   -0.31381E-04   -0.16040E-03 15108   0.133E-01    0.154E-01
DAV:   7    -0.628564436513E+03    0.45458E-04   -0.56564E-04 11760   0.545E-02
   7 F= -.62856444E+03 E0= -.62856444E+03  d E =-.430687E-01  mag=    19.9950
       N       E                     dE             d eps       ncg     rms          rms(c)
DAV:   1    -0.628567601118E+03   -0.31191E-02   -0.58320E-01 10848   0.156E+00    0.511E-01
DAV:   2    -0.628566344692E+03    0.12564E-02   -0.37827E-02 15792   0.515E-01    0.546E-01
DAV:   3    -0.628565668750E+03    0.67594E-03   -0.44954E-03 15384   0.178E-01    0.253E-01
DAV:   4    -0.628565405417E+03    0.26333E-03   -0.89334E-04 13992   0.825E-02    0.169E-01
DAV:   5    -0.628565371638E+03    0.33780E-04   -0.52908E-04 12036   0.555E-02
   8 F= -.62856537E+03 E0= -.62856537E+03  d E =-.935125E-03  mag=    19.9959
       N       E                     dE             d eps       ncg     rms          rms(c)
DAV:   1    -0.628569855426E+03   -0.44500E-02   -0.25011E+00 10752   0.312E+00    0.354E-01
DAV:   2    -0.628576668251E+03   -0.68128E-02   -0.73680E-02 13620   0.573E-01    0.316E-01
DAV:   3    -0.628576564896E+03    0.10335E-03   -0.31444E-03 14400   0.138E-01    0.186E-01
DAV:   4    -0.628576354228E+03    0.21067E-03   -0.50808E-04 11016   0.717E-02    0.138E-01
DAV:   5    -0.628576291344E+03    0.62884E-04   -0.87218E-04 14064   0.884E-02
   9 F= -.62857629E+03 E0= -.62857629E+03  d E =-.109197E-01  mag=    19.9966
       N       E                     dE             d eps       ncg     rms          rms(c)
DAV:   1    -0.628580283271E+03   -0.39290E-02   -0.16014E+00 10752   0.248E+00    0.370E-01
DAV:   2    -0.628584558195E+03   -0.42749E-02   -0.47912E-02 13668   0.471E-01    0.282E-01
DAV:   3    -0.628584711651E+03   -0.15346E-03   -0.40482E-03 14196   0.140E-01    0.159E-01
DAV:   4    -0.628584520266E+03    0.19138E-03   -0.11790E-03 14532   0.945E-02    0.113E-01
DAV:   5    -0.628584508012E+03    0.12254E-04   -0.68067E-04 12648   0.665E-02
  10 F= -.62858451E+03 E0= -.62858451E+03  d E =-.821667E-02  mag=    19.9972
       N       E                     dE             d eps       ncg     rms          rms(c)
DAV:   1    -0.628586226388E+03   -0.17061E-02   -0.12730E-01 10872   0.706E-01    0.104E-01
DAV:   2    -0.628586570596E+03   -0.34421E-03   -0.53071E-03 14184   0.175E-01    0.138E-01
DAV:   3    -0.628586529540E+03    0.41056E-04   -0.39389E-04 10548   0.514E-02
  11 F= -.62858653E+03 E0= -.62858653E+03  d E =-.202153E-02  mag=    19.9974
       N       E                     dE             d eps       ncg     rms          rms(c)
DAV:   1    -0.628589856258E+03   -0.32857E-02   -0.17541E+00 10800   0.262E+00    0.312E-01
DAV:   2    -0.628593838846E+03   -0.39826E-02   -0.47811E-02 12840   0.462E-01    0.222E-01
DAV:   3    -0.628593712388E+03    0.12646E-03   -0.19353E-03 14736   0.123E-01    0.158E-01
DAV:   4    -0.628593602630E+03    0.10976E-03   -0.51190E-04 11784   0.594E-02    0.928E-02
DAV:   5    -0.628593510094E+03    0.92536E-04   -0.14963E-04  7584   0.519E-02
  12 F= -.62859351E+03 E0= -.62859351E+03  d E =-.698055E-02  mag=    19.9979
       N       E                     dE             d eps       ncg     rms          rms(c)
DAV:   1    -0.628596499178E+03   -0.28965E-02   -0.37050E-01 10800   0.119E+00    0.205E-01
DAV:   2    -0.628597218065E+03   -0.71889E-03   -0.10801E-02 13572   0.231E-01    0.156E-01
DAV:   3    -0.628597243009E+03   -0.24944E-04   -0.97416E-04 13272   0.720E-02
  13 F= -.62859724E+03 E0= -.62859724E+03  d E =-.373292E-02  mag=    19.9981
       N       E                     dE             d eps       ncg     rms          rms(c)
DAV:   1    -0.628587516925E+03    0.97011E-02   -0.95625E+00 10752   0.610E+00    0.756E-01
DAV:   2    -0.628612599400E+03   -0.25082E-01   -0.26420E-01 12636   0.107E+00    0.517E-01
DAV:   3    -0.628613184201E+03   -0.58480E-03   -0.13093E-02 15132   0.247E-01    0.376E-01
DAV:   4    -0.628612526399E+03    0.65780E-03   -0.14001E-03 15012   0.981E-02    0.249E-01
DAV:   5    -0.628611893917E+03    0.63248E-03   -0.21519E-03 15660   0.172E-01    0.735E-02
DAV:   6    -0.628612060005E+03   -0.16609E-03   -0.19959E-03 13812   0.885E-02    0.751E-02
DAV:   7    -0.628611996572E+03    0.63433E-04   -0.98847E-05  6456   0.368E-02
  14 F= -.62861200E+03 E0= -.62861200E+03  d E =-.147536E-01  mag=    19.9985
       N       E                     dE             d eps       ncg     rms          rms(c)
DAV:   1    -0.628613767132E+03   -0.17071E-02   -0.12233E-01 11112   0.730E-01    0.299E-01
DAV:   2    -0.628612835634E+03    0.93150E-03   -0.87016E-03 15564   0.227E-01    0.204E-01
DAV:   3    -0.628612637413E+03    0.19822E-03   -0.16867E-03 15408   0.122E-01    0.106E-01
DAV:   4    -0.628612596805E+03    0.40608E-04   -0.50701E-04 11868   0.547E-02
  15 F= -.62861260E+03 E0= -.62861260E+03  d E =-.600233E-03  mag=    19.9987
       N       E                     dE             d eps       ncg     rms          rms(c)
DAV:   1    -0.628599465134E+03    0.13172E-01   -0.92651E+00 10752   0.601E+00    0.650E-01
DAV:   2    -0.628624519602E+03   -0.25054E-01   -0.25966E-01 12288   0.104E+00    0.426E-01
DAV:   3    -0.628624579983E+03   -0.60381E-04   -0.96458E-03 14784   0.219E-01    0.291E-01
DAV:   4    -0.628624036478E+03    0.54351E-03   -0.15131E-03 15288   0.103E-01    0.198E-01
DAV:   5    -0.628623515276E+03    0.52120E-03   -0.14342E-03 15648   0.160E-01    0.696E-02
DAV:   6    -0.628623676294E+03   -0.16102E-03   -0.18549E-03 13788   0.867E-02    0.826E-02
DAV:   7    -0.628623627878E+03    0.48416E-04   -0.86736E-05  6624   0.304E-02
  16 F= -.62862363E+03 E0= -.62862363E+03  d E =-.110311E-01  mag=    19.9990
       N       E                     dE             d eps       ncg     rms          rms(c)
DAV:   1    -0.628620630085E+03    0.30462E-02   -0.61135E-01 10824   0.156E+00    0.207E-01
DAV:   2    -0.628621681429E+03   -0.10513E-02   -0.18234E-02 13248   0.317E-01    0.180E-01
DAV:   3    -0.628621654019E+03    0.27409E-04   -0.15489E-03 14532   0.892E-02    0.122E-01
DAV:   4    -0.628621555504E+03    0.98516E-04   -0.39477E-04 10380   0.508E-02
  17 F= -.62862156E+03 E0= -.62862156E+03  d E =0.207237E-02  mag=    19.9991
       N       E                     dE             d eps       ncg     rms          rms(c)
DAV:   1    -0.628622334791E+03   -0.68077E-03   -0.10492E+00 10752   0.204E+00    0.244E-01
DAV:   2    -0.628625095979E+03   -0.27612E-02   -0.32408E-02 12432   0.376E-01    0.177E-01
DAV:   3    -0.628625053365E+03    0.42614E-04   -0.11502E-03 14460   0.891E-02    0.108E-01
DAV:   4    -0.628624959464E+03    0.93900E-04   -0.25127E-04  8424   0.488E-02
  18 F= -.62862496E+03 E0= -.62862496E+03  d E =-.340396E-02  mag=    19.9993
       N       E                     dE             d eps       ncg     rms          rms(c)
DAV:   1    -0.628625997217E+03   -0.94385E-03   -0.40469E-01 10824   0.125E+00    0.140E-01
DAV:   2    -0.628626897714E+03   -0.90050E-03   -0.10622E-02 13056   0.212E-01    0.115E-01
DAV:   3    -0.628626860207E+03    0.37507E-04   -0.37292E-04 10140   0.516E-02
  19 F= -.62862686E+03 E0= -.62862686E+03  d E =-.190074E-02  mag=    19.9993
       N       E                     dE             d eps       ncg     rms          rms(c)
DAV:   1    -0.628627659603E+03   -0.76189E-03   -0.63450E-01 10776   0.157E+00    0.210E-01
DAV:   2    -0.628629244861E+03   -0.15853E-02   -0.16626E-02 12324   0.265E-01    0.121E-01
DAV:   3    -0.628629254995E+03   -0.10133E-04   -0.78424E-04 13104   0.565E-02
  20 F= -.62862925E+03 E0= -.62862925E+03  d E =-.239479E-02  mag=    19.9994
       N       E                     dE             d eps       ncg     rms          rms(c)
DAV:   1    -0.628567517337E+03    0.61728E-01   -0.29590E+01 10752   0.108E+01    0.123E+00
DAV:   2    -0.628643294153E+03   -0.75777E-01   -0.81409E-01 12024   0.183E+00    0.684E-01
DAV:   3    -0.628643266889E+03    0.27263E-04   -0.32403E-02 14844   0.388E-01    0.458E-01
DAV:   4    -0.628641017844E+03    0.22490E-02   -0.68430E-03 15504   0.225E-01    0.271E-01
DAV:   5    -0.628639898389E+03    0.11195E-02   -0.45056E-03 15804   0.225E-01    0.113E-01
DAV:   6    -0.628640095962E+03   -0.19757E-03   -0.29670E-03 14640   0.123E-01    0.127E-01
DAV:   7    -0.628640004436E+03    0.91526E-04   -0.22668E-04  7668   0.442E-02
  21 F= -.62864000E+03 E0= -.62864000E+03  d E =-.107494E-01  mag=    19.9995
       N       E                     dE             d eps       ncg     rms          rms(c)
DAV:   1    -0.628640060638E+03    0.35324E-04   -0.77266E-02 11016   0.558E-01    0.147E-01
DAV:   2    -0.628640031669E+03    0.28968E-04   -0.39739E-03 15804   0.161E-01    0.166E-01
DAV:   3    -0.628639943041E+03    0.88628E-04   -0.35017E-04 10404   0.516E-02
  22 F= -.62863994E+03 E0= -.62863994E+03  d E =0.613948E-04  mag=    19.9996
       N       E                     dE             d eps       ncg     rms          rms(c)
DAV:   1    -0.628640007187E+03    0.24482E-04   -0.25967E-02 11064   0.320E-01    0.710E-02
DAV:   2    -0.628640085842E+03   -0.78656E-04   -0.85192E-04 11292   0.647E-02
  23 F= -.62864009E+03 E0= -.62864009E+03  d E =-.142801E-03  mag=    19.9996
       N       E                     dE             d eps       ncg     rms          rms(c)
DAV:   1    -0.628640411401E+03   -0.40421E-03   -0.60753E-01 10776   0.154E+00    0.447E-01
DAV:   2    -0.628640674827E+03   -0.26343E-03   -0.27655E-02 14928   0.409E-01    0.380E-01
DAV:   3    -0.628640299395E+03    0.37543E-03   -0.46857E-03 14508   0.177E-01    0.191E-01
DAV:   4    -0.628640138050E+03    0.16135E-03   -0.88239E-04 12912   0.653E-02    0.135E-01
DAV:   5    -0.628640070844E+03    0.67205E-04   -0.18082E-04  7836   0.400E-02
  24 F= -.62864007E+03 E0= -.62864007E+03  d E =0.149979E-04  mag=    19.9997
       N       E                     dE             d eps       ncg     rms          rms(c)
DAV:   1    -0.628641934361E+03   -0.17963E-02   -0.76958E-02 10848   0.558E-01    0.270E-01
DAV:   2    -0.628641394827E+03    0.53953E-03   -0.83557E-03 15120   0.247E-01    0.276E-01
DAV:   3    -0.628641144456E+03    0.25037E-03   -0.16838E-03 14388   0.103E-01    0.161E-01
DAV:   4    -0.628641077305E+03    0.67151E-04   -0.47669E-04 10608   0.411E-02
  25 F= -.62864108E+03 E0= -.62864108E+03  d E =-.100646E-02  mag=    19.9997
       N       E                     dE             d eps       ncg     rms          rms(c)
DAV:   1    -0.628641243402E+03   -0.98946E-04   -0.10988E-01 10944   0.667E-01    0.147E-01
DAV:   2    -0.628641361187E+03   -0.11779E-03   -0.39908E-03 14652   0.146E-01    0.128E-01
DAV:   3    -0.628641317012E+03    0.44176E-04   -0.35346E-04 10584   0.512E-02
  26 F= -.62864132E+03 E0= -.62864132E+03  d E =-.239706E-03  mag=    19.9998
       N       E                     dE             d eps       ncg     rms          rms(c)
DAV:   1    -0.628641185782E+03    0.17541E-03   -0.57796E-03 10824   0.153E-01    0.602E-02
DAV:   2    -0.628641196988E+03   -0.11206E-04   -0.20647E-04  7068   0.338E-02
  27 F= -.62864120E+03 E0= -.62864120E+03  d E =0.120023E-03  mag=    19.9998
       N       E                     dE             d eps       ncg     rms          rms(c)
DAV:   1    -0.628641245083E+03   -0.59301E-04   -0.17405E-03 11160   0.871E-02    0.371E-02
DAV:   2    -0.628641225983E+03    0.19100E-04   -0.94550E-05  5952   0.296E-02
  28 F= -.62864123E+03 E0= -.62864123E+03  d E =-.289951E-04  mag=    19.9998
       N       E                     dE             d eps       ncg     rms          rms(c)
DAV:   1    -0.628643562671E+03   -0.23176E-02   -0.78843E-01 10848   0.184E+00    0.630E-01
DAV:   2    -0.628639869791E+03    0.36929E-02   -0.38321E-02 15192   0.470E-01    0.471E-01
DAV:   3    -0.628639002530E+03    0.86726E-03   -0.58857E-03 15336   0.209E-01    0.244E-01
DAV:   4    -0.628638712452E+03    0.29008E-03   -0.21329E-03 15816   0.106E-01    0.151E-01
DAV:   5    -0.628638616696E+03    0.95756E-04   -0.43107E-04 10944   0.628E-02
  29 F= -.62863862E+03 E0= -.62863862E+03  d E =0.260929E-02  mag=    19.9998
       N       E                     dE             d eps       ncg     rms          rms(c)
DAV:   1    -0.628655065822E+03   -0.16353E-01   -0.74670E-01 11064   0.189E+00    0.960E-01
DAV:   2    -0.628643481307E+03    0.11585E-01   -0.80000E-02 15780   0.698E-01    0.740E-01
DAV:   3    -0.628641136379E+03    0.23449E-02   -0.15849E-02 15444   0.333E-01    0.308E-01
DAV:   4    -0.628640653522E+03    0.48286E-03   -0.18629E-03 15240   0.106E-01    0.168E-01
DAV:   5    -0.628640538023E+03    0.11550E-03   -0.65255E-04 12756   0.695E-02    0.856E-02
DAV:   6    -0.628640527683E+03    0.10340E-04   -0.10926E-04  6504   0.288E-02
  30 F= -.62864053E+03 E0= -.62864053E+03  d E =-.191099E-02  mag=    19.9999
       N       E                     dE             d eps       ncg     rms          rms(c)
DAV:   1    -0.628642746978E+03   -0.22090E-02   -0.11365E-01 10920   0.686E-01    0.297E-01
DAV:   2    -0.628642216165E+03    0.53081E-03   -0.13200E-02 15456   0.310E-01    0.336E-01
DAV:   3    -0.628641836620E+03    0.37954E-03   -0.21144E-03 14868   0.111E-01    0.199E-01
DAV:   4    -0.628641767082E+03    0.69539E-04   -0.85135E-04 11364   0.524E-02
  31 F= -.62864177E+03 E0= -.62864177E+03  d E =-.123940E-02  mag=    19.9999
       N       E                     dE             d eps       ncg     rms          rms(c)
DAV:   1    -0.628641990173E+03   -0.15355E-03   -0.58742E-02 11052   0.487E-01    0.134E-01
DAV:   2    -0.628641908392E+03    0.81781E-04   -0.22423E-03 13236   0.105E-01    0.913E-02
DAV:   3    -0.628641878095E+03    0.30296E-04   -0.17856E-04  8412   0.429E-02
  32 F= -.62864188E+03 E0= -.62864188E+03  d E =-.111014E-03  mag=    19.9999
       N       E                     dE             d eps       ncg     rms          rms(c)
DAV:   1    -0.628642028525E+03   -0.12013E-03   -0.12084E-02 11064   0.215E-01    0.542E-02
DAV:   2    -0.628642043966E+03   -0.15441E-04   -0.45460E-04  8856   0.488E-02
  33 F= -.62864204E+03 E0= -.62864204E+03  d E =-.165871E-03  mag=    19.9999
       N       E                     dE             d eps       ncg     rms          rms(c)
DAV:   1    -0.628642063205E+03   -0.34680E-04   -0.31286E-02 10848   0.341E-01    0.597E-02
DAV:   2    -0.628642130128E+03   -0.66923E-04   -0.10552E-03 12648   0.845E-02    0.817E-02
DAV:   3    -0.628642129081E+03    0.10462E-05   -0.90181E-05  6420   0.254E-02
  34 F= -.62864213E+03 E0= -.62864213E+03  d E =-.851157E-04  mag=    19.9999
       N       E                     dE             d eps       ncg     rms          rms(c)
DAV:   1    -0.628643066274E+03   -0.93615E-03   -0.57937E-02 11040   0.520E-01    0.289E-01
DAV:   2    -0.628641888782E+03    0.11775E-02   -0.65856E-03 15672   0.191E-01    0.174E-01
DAV:   3    -0.628641729504E+03    0.15928E-03   -0.14703E-03 14616   0.110E-01    0.931E-02
DAV:   4    -0.628641678287E+03    0.51216E-04   -0.24872E-04  8808   0.413E-02
  35 F= -.62864168E+03 E0= -.62864168E+03  d E =0.450794E-03  mag=    19.9999
       N       E                     dE             d eps       ncg     rms          rms(c)
DAV:   1    -0.628642780864E+03   -0.10514E-02   -0.40344E-02 10968   0.407E-01    0.188E-01
DAV:   2    -0.628642304904E+03    0.47596E-03   -0.32780E-03 15480   0.147E-01    0.146E-01
DAV:   3    -0.628642238850E+03    0.66054E-04   -0.57604E-04 12024   0.659E-02
  36 F= -.62864224E+03 E0= -.62864224E+03  d E =-.560562E-03  mag=    19.9999
       N       E                     dE             d eps       ncg     rms          rms(c)
DAV:   1    -0.628642555013E+03   -0.25011E-03   -0.58085E-02 10872   0.486E-01    0.155E-01
DAV:   2    -0.628642427161E+03    0.12785E-03   -0.25560E-03 15120   0.118E-01    0.107E-01
DAV:   3    -0.628642385078E+03    0.42083E-04   -0.37733E-04 10656   0.549E-02
  37 F= -.62864239E+03 E0= -.62864239E+03  d E =-.146228E-03  mag=    19.9999
       N       E                     dE             d eps       ncg     rms          rms(c)
DAV:   1    -0.628642419756E+03    0.74046E-05   -0.52794E-04  9852   0.502E-02    0.316E-02
DAV:   2    -0.628642412543E+03    0.72132E-05   -0.53503E-05  6228   0.256E-02
  38 F= -.62864241E+03 E0= -.62864241E+03  d E =-.274651E-04  mag=    19.9999
       N       E                     dE             d eps       ncg     rms          rms(c)
DAV:   1    -0.628642483821E+03   -0.64065E-04   -0.38196E-02 10944   0.397E-01    0.107E-01
DAV:   2    -0.628642455536E+03    0.28286E-04   -0.19007E-03 15036   0.106E-01    0.956E-02
DAV:   3    -0.628642412928E+03    0.42608E-04   -0.16790E-04  7656   0.424E-02
  39 F= -.62864241E+03 E0= -.62864241E+03  d E =-.384833E-06  mag=    19.9999
       N       E                     dE             d eps       ncg     rms          rms(c)
DAV:   1    -0.628645306768E+03   -0.28512E-02   -0.14560E-01 10944   0.824E-01    0.442E-01
DAV:   2    -0.628642499146E+03    0.28076E-02   -0.15180E-02 15636   0.291E-01    0.263E-01
DAV:   3    -0.628642168003E+03    0.33114E-03   -0.34921E-03 15180   0.172E-01    0.147E-01
DAV:   4    -0.628642069649E+03    0.98354E-04   -0.88590E-04 14340   0.669E-02
  40 F= -.62864207E+03 E0= -.62864207E+03  d E =0.343279E-03  mag=    20.0000
       N       E                     dE             d eps       ncg     rms          rms(c)
DAV:   1    -0.628643348085E+03   -0.11801E-02   -0.21214E-01 10776   0.899E-01    0.291E-01
DAV:   2    -0.628642581613E+03    0.76647E-03   -0.10442E-02 14256   0.272E-01    0.266E-01
DAV:   3    -0.628642503808E+03    0.77805E-04   -0.21846E-03 14364   0.102E-01    0.166E-01
DAV:   4    -0.628642381000E+03    0.12281E-03   -0.79369E-04 13356   0.653E-02    0.131E-01
DAV:   5    -0.628642336062E+03    0.44938E-04   -0.10622E-04  8280   0.417E-02
  41 F= -.62864234E+03 E0= -.62864234E+03  d E =-.266413E-03  mag=    20.0000
       N       E                     dE             d eps       ncg     rms          rms(c)
DAV:   1    -0.628642995927E+03   -0.61493E-03   -0.59623E-02 10800   0.451E-01    0.105E-01
DAV:   2    -0.628643055125E+03   -0.59198E-04   -0.27859E-03 13536   0.134E-01    0.134E-01
DAV:   3    -0.628643054817E+03    0.30830E-06   -0.40811E-04 10356   0.397E-02
  42 F= -.62864305E+03 E0= -.62864305E+03  d E =-.718755E-03  mag=    20.0000
       N       E                     dE             d eps       ncg     rms          rms(c)
DAV:   1    -0.628643383802E+03   -0.32868E-03   -0.23802E-02 11016   0.318E-01    0.152E-01
DAV:   2    -0.628643171853E+03    0.21195E-03   -0.19119E-03 15816   0.103E-01    0.792E-02
DAV:   3    -0.628643104955E+03    0.66898E-04   -0.41869E-04 11136   0.672E-02
  43 F= -.62864310E+03 E0= -.62864310E+03  d E =-.501379E-04  mag=    20.0000
       N       E                     dE             d eps       ncg     rms          rms(c)
DAV:   1    -0.628643270729E+03   -0.98876E-04   -0.39799E-02 10800   0.391E-01    0.551E-02
DAV:   2    -0.628643335512E+03   -0.64782E-04   -0.11712E-03 12948   0.829E-02    0.506E-02
DAV:   3    -0.628643329819E+03    0.56924E-05   -0.10117E-04  6084   0.289E-02
  44 F= -.62864333E+03 E0= -.62864333E+03  d E =-.224865E-03  mag=    20.0000
       N       E                     dE             d eps       ncg     rms          rms(c)
DAV:   1    -0.628643382744E+03   -0.47232E-04   -0.11980E-03 10728   0.716E-02    0.314E-02
DAV:   2    -0.628643371627E+03    0.11117E-04   -0.72025E-05  5952   0.247E-02
  45 F= -.62864337E+03 E0= -.62864337E+03  d E =-.418074E-04  mag=    20.0000
       N       E                     dE             d eps       ncg     rms          rms(c)
DAV:   1    -0.628643587152E+03   -0.20441E-03   -0.19614E-02 10944   0.291E-01    0.104E-01
DAV:   2    -0.628643487916E+03    0.99236E-04   -0.10535E-03 13140   0.766E-02    0.772E-02
DAV:   3    -0.628643465754E+03    0.22161E-04   -0.14046E-04  7920   0.381E-02
  46 F= -.62864347E+03 E0= -.62864347E+03  d E =-.941278E-04  mag=    20.0000
       N       E                     dE             d eps       ncg     rms          rms(c)
DAV:   1    -0.628643543590E+03   -0.55674E-04   -0.45794E-02 10776   0.416E-01    0.712E-02
DAV:   2    -0.628643660730E+03   -0.11714E-03   -0.16391E-03 13632   0.984E-02    0.876E-02
DAV:   3    -0.628643651844E+03    0.88867E-05   -0.86199E-05  6276   0.277E-02
  47 F= -.62864365E+03 E0= -.62864365E+03  d E =-.186089E-03  mag=    20.0000
       N       E                     dE             d eps       ncg     rms          rms(c)
DAV:   1    -0.628643678586E+03   -0.17855E-04   -0.11906E-03 10224   0.715E-02    0.505E-02
DAV:   2    -0.628643659645E+03    0.18940E-04   -0.77233E-05  6180   0.297E-02
  48 F= -.62864366E+03 E0= -.62864366E+03  d E =-.780160E-05  mag=    20.0000
       N       E                     dE             d eps       ncg     rms          rms(c)
DAV:   1    -0.628643714708E+03   -0.36122E-04   -0.56989E-03 10944   0.152E-01    0.419E-02
DAV:   2    -0.628643711931E+03    0.27767E-05   -0.14897E-04  6096   0.327E-02
  49 F= -.62864371E+03 E0= -.62864371E+03  d E =-.522856E-04  mag=    20.0000
       N       E                     dE             d eps       ncg     rms          rms(c)
DAV:   1    -0.628643921630E+03   -0.20692E-03   -0.56000E-02 10824   0.477E-01    0.162E-01
DAV:   2    -0.628643750530E+03    0.17110E-03   -0.32134E-03 15924   0.164E-01    0.173E-01
DAV:   3    -0.628643697953E+03    0.52577E-04   -0.39748E-04 11256   0.551E-02
  50 F= -.62864370E+03 E0= -.62864370E+03  d E =0.139778E-04  mag=    20.0000
       N       E                     dE             d eps       ncg     rms          rms(c)
DAV:   1    -0.628644226284E+03   -0.47575E-03   -0.12766E-02 12120   0.257E-01    0.166E-01
DAV:   2    -0.628643902842E+03    0.32344E-03   -0.28565E-03 15840   0.132E-01    0.152E-01
DAV:   3    -0.628643820762E+03    0.82080E-04   -0.42411E-04 10596   0.544E-02
  51 F= -.62864382E+03 E0= -.62864382E+03  d E =-.122809E-03  mag=    20.0000
       N       E                     dE             d eps       ncg     rms          rms(c)
DAV:   1    -0.628644003647E+03   -0.10080E-03   -0.23998E-02 10776   0.294E-01    0.632E-02
DAV:   2    -0.628644033183E+03   -0.29536E-04   -0.10544E-03 12828   0.815E-02    0.755E-02
DAV:   3    -0.628644024377E+03    0.88055E-05   -0.11660E-04  6480   0.265E-02
  52 F= -.62864402E+03 E0= -.62864402E+03  d E =-.203616E-03  mag=    20.0000
