       N       E                     dE             d eps       ncg     rms          rms(c)
DAV:   1     0.551448903607E+04    0.55145E+04   -0.19746E+05 21504   0.125E+03
DAV:   2     0.487212490759E+03   -0.50273E+04   -0.46271E+04 22260   0.349E+02
DAV:   3    -0.722858817546E+03   -0.12101E+04   -0.11733E+04 25272   0.178E+02
DAV:   4    -0.824812717574E+03   -0.10195E+03   -0.10051E+03 32184   0.589E+01
DAV:   5    -0.828550572407E+03   -0.37379E+01   -0.36951E+01 34092   0.127E+01
DAV:   6    -0.828712520083E+03   -0.16195E+00   -0.16083E+00 34044   0.235E+00
DAV:   7    -0.828720792818E+03   -0.82727E-02   -0.82453E-02 34200   0.538E-01
DAV:   8    -0.828721327109E+03   -0.53429E-03   -0.53335E-03 28212   0.120E-01
DAV:   9    -0.828721364448E+03   -0.37339E-04   -0.37275E-04 20148   0.364E-02
DAV:  10    -0.828721368461E+03   -0.40125E-05   -0.39954E-05 17724   0.169E-02
DAV:  11    -0.828721370015E+03   -0.15542E-05   -0.15459E-05 16608   0.116E-02
DAV:  12    -0.828721370911E+03   -0.89673E-06   -0.89249E-06 16140   0.875E-03    0.115E+02
DAV:  13    -0.609611622459E+03    0.21911E+03   -0.12811E+03 31836   0.807E+01    0.717E+01
DAV:  14    -0.630989888959E+03   -0.21378E+02   -0.39435E+02 33540   0.481E+01    0.476E+01
DAV:  15    -0.626324673602E+03    0.46652E+01   -0.50248E+01 30756   0.168E+01    0.289E+01
DAV:  16    -0.635788702501E+03   -0.94640E+01   -0.54525E+01 31452   0.218E+01    0.492E+01
DAV:  17    -0.627695007038E+03    0.80937E+01   -0.16414E+02 31416   0.363E+01    0.257E+01
DAV:  18    -0.629153649847E+03   -0.14586E+01   -0.32666E+01 31116   0.885E+00    0.135E+01
DAV:  19    -0.627337226984E+03    0.18164E+01   -0.40191E+00 30852   0.458E+00    0.928E+00
DAV:  20    -0.626158438819E+03    0.11788E+01   -0.13842E+00 33984   0.479E+00    0.563E+00
DAV:  21    -0.625812915371E+03    0.34552E+00   -0.10154E+00 32160   0.269E+00    0.465E+00
DAV:  22    -0.625724960068E+03    0.87955E-01   -0.26675E-01 30036   0.111E+00    0.399E+00
DAV:  23    -0.625592693717E+03    0.13227E+00   -0.45074E-02 32136   0.969E-01    0.315E+00
DAV:  24    -0.625466243299E+03    0.12645E+00   -0.85201E-02 37488   0.148E+00    0.210E+00
DAV:  25    -0.625388783764E+03    0.77460E-01   -0.15211E-01 34584   0.155E+00    0.124E+00
DAV:  26    -0.625376624555E+03    0.12159E-01   -0.15581E-01 31896   0.101E+00    0.838E-01
DAV:  27    -0.625374446879E+03    0.21777E-02   -0.39784E-02 29304   0.420E-01    0.513E-01
DAV:  28    -0.625373353874E+03    0.10930E-02   -0.58741E-03 28788   0.196E-01    0.368E-01
DAV:  29    -0.625373558282E+03   -0.20441E-03   -0.23746E-03 30696   0.149E-01    0.204E-01
DAV:  30    -0.625373754397E+03   -0.19612E-03   -0.11601E-03 29208   0.151E-01    0.967E-02
DAV:  31    -0.625373841848E+03   -0.87451E-04   -0.13327E-03 29856   0.105E-01    0.786E-02
DAV:  32    -0.625373897789E+03   -0.55940E-04   -0.77278E-04 22956   0.571E-02
   1 F= -.62537390E+03 E0= -.62537269E+03  d E =-.625374E+03  mag=    19.9256
       N       E                     dE             d eps       ncg     rms          rms(c)
DAV:   1    -0.626500456006E+03   -0.11266E+01   -0.93428E+02 21504   0.602E+01    0.158E+01
DAV:   2    -0.627609913065E+03   -0.11095E+01   -0.49825E+01 31692   0.243E+01    0.171E+01
DAV:   3    -0.627578548955E+03    0.31364E-01   -0.93597E+00 30984   0.708E+00    0.108E+01
DAV:   4    -0.627143180206E+03    0.43537E+00   -0.16303E+00 32004   0.300E+00    0.723E+00
DAV:   5    -0.626980062445E+03    0.16312E+00   -0.96234E-01 29424   0.325E+00    0.402E+00
DAV:   6    -0.626969266047E+03    0.10796E-01   -0.69298E-01 30528   0.205E+00    0.184E+00
DAV:   7    -0.626967721659E+03    0.15444E-02   -0.30298E-01 32448   0.172E+00    0.986E-01
DAV:   8    -0.626968748528E+03   -0.10269E-02   -0.49847E-02 29508   0.635E-01    0.700E-01
DAV:   9    -0.626967540350E+03    0.12082E-02   -0.11209E-02 31104   0.282E-01    0.377E-01
DAV:  10    -0.626967546937E+03   -0.65871E-05   -0.78432E-03 31452   0.222E-01    0.261E-01
DAV:  11    -0.626967520205E+03    0.26732E-04   -0.23189E-03 31056   0.126E-01    0.112E-01
DAV:  12    -0.626967449849E+03    0.70356E-04   -0.61473E-04 24336   0.685E-02
   2 F= -.62696745E+03 E0= -.62696745E+03  d E =-.159355E+01  mag=    19.9523
       N       E                     dE             d eps       ncg     rms          rms(c)
DAV:   1    -0.628348797376E+03   -0.13813E+01   -0.16887E+02 21504   0.258E+01    0.892E+00
DAV:   2    -0.628078688202E+03    0.27011E+00   -0.11710E+01 29076   0.102E+01    0.111E+01
DAV:   3    -0.627913995824E+03    0.16469E+00   -0.26627E+00 31188   0.329E+00    0.676E+00
DAV:   4    -0.627854543352E+03    0.59452E-01   -0.99468E-01 31728   0.242E+00    0.524E+00
DAV:   5    -0.627798962272E+03    0.55581E-01   -0.38852E-01 30144   0.202E+00    0.247E+00
DAV:   6    -0.627773986112E+03    0.24976E-01   -0.37879E-01 31428   0.127E+00    0.977E-01
DAV:   7    -0.627772814278E+03    0.11718E-02   -0.99973E-02 30840   0.680E-01    0.538E-01
DAV:   8    -0.627770810326E+03    0.20040E-02   -0.15026E-02 30024   0.366E-01    0.259E-01
DAV:   9    -0.627770907169E+03   -0.96843E-04   -0.71135E-03 30684   0.231E-01    0.230E-01
DAV:  10    -0.627770909382E+03   -0.22123E-05   -0.15863E-03 29040   0.968E-02    0.128E-01
DAV:  11    -0.627770871869E+03    0.37513E-04   -0.84042E-04 27120   0.614E-02
   3 F= -.62777087E+03 E0= -.62777087E+03  d E =-.803422E+00  mag=    19.9687
       N       E                     dE             d eps       ncg     rms          rms(c)
DAV:   1    -0.627942927116E+03   -0.17202E+00   -0.66293E+01 21504   0.161E+01    0.360E+00
DAV:   2    -0.628108803519E+03   -0.16588E+00   -0.34907E+00 29880   0.497E+00    0.474E+00
DAV:   3    -0.628067232723E+03    0.41571E-01   -0.37114E-01 27660   0.153E+00    0.323E+00
DAV:   4    -0.628036468253E+03    0.30764E-01   -0.10229E-01 29520   0.625E-01    0.242E+00
DAV:   5    -0.628021100544E+03    0.15368E-01   -0.72366E-02 28572   0.707E-01    0.107E+00
DAV:   6    -0.628018111749E+03    0.29888E-02   -0.58255E-02 31620   0.621E-01    0.495E-01
DAV:   7    -0.628017797171E+03    0.31458E-03   -0.22633E-02 26496   0.319E-01    0.384E-01
DAV:   8    -0.628017756327E+03    0.40845E-04   -0.23061E-03 31932   0.134E-01    0.216E-01
DAV:   9    -0.628017692192E+03    0.64134E-04   -0.15129E-03 31272   0.105E-01    0.130E-01
DAV:  10    -0.628017549301E+03    0.14289E-03   -0.58644E-04 24156   0.669E-02    0.717E-02
DAV:  11    -0.628017525499E+03    0.23802E-04   -0.36981E-04 18048   0.404E-02
   4 F= -.62801753E+03 E0= -.62801753E+03  d E =-.246654E+00  mag=    19.9795
       N       E                     dE             d eps       ncg     rms          rms(c)
DAV:   1    -0.628075539695E+03   -0.57990E-01   -0.59179E+01 21504   0.147E+01    0.354E+00
DAV:   2    -0.628067479125E+03    0.80606E-02   -0.29419E+00 29952   0.553E+00    0.468E+00
DAV:   3    -0.628069727846E+03   -0.22487E-02   -0.72487E-01 28392   0.172E+00    0.340E+00
DAV:   4    -0.628028359195E+03    0.41369E-01   -0.18408E-01 31392   0.960E-01    0.287E+00
DAV:   5    -0.628016517693E+03    0.11842E-01   -0.12445E-01 29784   0.953E-01    0.164E+00
DAV:   6    -0.628003133180E+03    0.13385E-01   -0.10678E-01 31356   0.935E-01    0.936E-01
DAV:   7    -0.628000847744E+03    0.22854E-02   -0.80637E-02 31500   0.742E-01    0.782E-01
DAV:   8    -0.628001132725E+03   -0.28498E-03   -0.67764E-03 30204   0.275E-01    0.341E-01
DAV:   9    -0.628000782427E+03    0.35030E-03   -0.35077E-03 31344   0.145E-01    0.187E-01
DAV:  10    -0.628000589355E+03    0.19307E-03   -0.10217E-03 26760   0.706E-02    0.125E-01
DAV:  11    -0.628000533473E+03    0.55882E-04   -0.26235E-04 17556   0.384E-02
   5 F= -.62800053E+03 E0= -.62800053E+03  d E =0.169920E-01  mag=    19.9865
       N       E                     dE             d eps       ncg     rms          rms(c)
DAV:   1    -0.628206126306E+03   -0.20554E+00   -0.22597E+01 21504   0.901E+00    0.213E+00
DAV:   2    -0.628237877585E+03   -0.31751E-01   -0.12478E+00 30084   0.325E+00    0.307E+00
DAV:   3    -0.628232465122E+03    0.54125E-02   -0.22681E-01 28476   0.995E-01    0.222E+00
DAV:   4    -0.628215735722E+03    0.16729E-01   -0.66171E-02 29628   0.554E-01    0.183E+00
DAV:   5    -0.628212720676E+03    0.30150E-02   -0.65299E-02 30372   0.631E-01    0.106E+00
DAV:   6    -0.628208375589E+03    0.43451E-02   -0.52455E-02 31188   0.569E-01    0.674E-01
DAV:   7    -0.628206141068E+03    0.22345E-02   -0.29536E-02 30912   0.393E-01    0.463E-01
DAV:   8    -0.628206208727E+03   -0.67658E-04   -0.29348E-03 30456   0.169E-01    0.215E-01
DAV:   9    -0.628206021846E+03    0.18688E-03   -0.15736E-03 28068   0.109E-01    0.992E-02
DAV:  10    -0.628206003969E+03    0.17877E-04   -0.57386E-04 23340   0.486E-02
   6 F= -.62820600E+03 E0= -.62820600E+03  d E =-.205470E+00  mag=    19.9908
       N       E                     dE             d eps       ncg     rms          rms(c)
DAV:   1    -0.628227429591E+03   -0.21408E-01   -0.70417E+00 21504   0.524E+00    0.594E-01
DAV:   2    -0.628246149462E+03   -0.18720E-01   -0.21401E-01 26928   0.102E+00    0.605E-01
DAV:   3    -0.628245831771E+03    0.31769E-03   -0.12795E-02 30204   0.263E-01    0.379E-01
DAV:   4    -0.628245032863E+03    0.79891E-03   -0.26068E-03 29952   0.121E-01    0.276E-01
DAV:   5    -0.628244568620E+03    0.46424E-03   -0.18482E-03 27516   0.140E-01    0.128E-01
DAV:   6    -0.628244604169E+03   -0.35549E-04   -0.16430E-03 29808   0.875E-02    0.680E-02
DAV:   7    -0.628244575929E+03    0.28240E-04   -0.25978E-04 14892   0.417E-02
   7 F= -.62824458E+03 E0= -.62824458E+03  d E =-.385720E-01  mag=    19.9930
       N       E                     dE             d eps       ncg     rms          rms(c)
DAV:   1    -0.628260151733E+03   -0.15548E-01   -0.65486E+00 21504   0.500E+00    0.624E-01
DAV:   2    -0.628277320732E+03   -0.17169E-01   -0.19633E-01 26256   0.925E-01    0.529E-01
DAV:   3    -0.628277375316E+03   -0.54584E-04   -0.10390E-02 30540   0.226E-01    0.352E-01
DAV:   4    -0.628276795833E+03    0.57948E-03   -0.25233E-03 31464   0.119E-01    0.233E-01
DAV:   5    -0.628276619400E+03    0.17643E-03   -0.13448E-03 29316   0.106E-01    0.123E-01
DAV:   6    -0.628276619666E+03   -0.26586E-06   -0.38317E-04 20412   0.550E-02
   8 F= -.62827662E+03 E0= -.62827662E+03  d E =-.320437E-01  mag=    19.9945
       N       E                     dE             d eps       ncg     rms          rms(c)
DAV:   1    -0.628287298051E+03   -0.10679E-01   -0.41246E+00 21504   0.401E+00    0.464E-01
DAV:   2    -0.628298009767E+03   -0.10712E-01   -0.12323E-01 26364   0.762E-01    0.407E-01
DAV:   3    -0.628297916210E+03    0.93557E-04   -0.71847E-03 30588   0.197E-01    0.268E-01
DAV:   4    -0.628297502654E+03    0.41356E-03   -0.17004E-03 30396   0.102E-01    0.181E-01
DAV:   5    -0.628297258166E+03    0.24449E-03   -0.73307E-04 25884   0.105E-01    0.750E-02
DAV:   6    -0.628297302277E+03   -0.44111E-04   -0.81577E-04 25596   0.631E-02
   9 F= -.62829730E+03 E0= -.62829730E+03  d E =-.206826E-01  mag=    19.9956
       N       E                     dE             d eps       ncg     rms          rms(c)
DAV:   1    -0.628307031046E+03   -0.97729E-02   -0.17696E+00 21528   0.259E+00    0.341E-01
DAV:   2    -0.628311470573E+03   -0.44395E-02   -0.53836E-02 26664   0.502E-01    0.325E-01
DAV:   3    -0.628311454496E+03    0.16078E-04   -0.41647E-03 28836   0.141E-01    0.202E-01
DAV:   4    -0.628311248030E+03    0.20647E-03   -0.12965E-03 29460   0.898E-02    0.160E-01
DAV:   5    -0.628311227093E+03    0.20936E-04   -0.60695E-04 23964   0.643E-02
  10 F= -.62831123E+03 E0= -.62831123E+03  d E =-.139248E-01  mag=    19.9964
       N       E                     dE             d eps       ncg     rms          rms(c)
DAV:   1    -0.628318503922E+03   -0.72559E-02   -0.32361E+00 21552   0.353E+00    0.401E-01
DAV:   2    -0.628327275382E+03   -0.87715E-02   -0.94791E-02 26316   0.643E-01    0.331E-01
DAV:   3    -0.628327244377E+03    0.31005E-04   -0.44799E-03 29880   0.162E-01    0.211E-01
DAV:   4    -0.628327037095E+03    0.20728E-03   -0.61586E-04 24384   0.708E-02    0.148E-01
DAV:   5    -0.628326930153E+03    0.10694E-03   -0.84509E-04 28644   0.960E-02    0.615E-02
DAV:   6    -0.628326944447E+03   -0.14294E-04   -0.40874E-04 19836   0.510E-02
  11 F= -.62832694E+03 E0= -.62832694E+03  d E =-.157174E-01  mag=    19.9971
       N       E                     dE             d eps       ncg     rms          rms(c)
DAV:   1    -0.628333432502E+03   -0.65023E-02   -0.17407E+00 21504   0.259E+00    0.326E-01
DAV:   2    -0.628337507446E+03   -0.40749E-02   -0.50402E-02 25104   0.457E-01    0.209E-01
DAV:   3    -0.628337484639E+03    0.22807E-04   -0.29793E-03 29376   0.132E-01    0.112E-01
DAV:   4    -0.628337358069E+03    0.12657E-03   -0.60762E-04 23916   0.685E-02    0.813E-02
DAV:   5    -0.628337335205E+03    0.22863E-04   -0.29005E-04 16548   0.479E-02
  12 F= -.62833734E+03 E0= -.62833734E+03  d E =-.103908E-01  mag=    19.9976
       N       E                     dE             d eps       ncg     rms          rms(c)
DAV:   1    -0.628342315593E+03   -0.49575E-02   -0.18879E+00 21504   0.269E+00    0.321E-01
DAV:   2    -0.628347262482E+03   -0.49469E-02   -0.54400E-02 26148   0.487E-01    0.265E-01
DAV:   3    -0.628347229572E+03    0.32910E-04   -0.26105E-03 29640   0.125E-01    0.169E-01
DAV:   4    -0.628347100773E+03    0.12880E-03   -0.31494E-04 18672   0.545E-02    0.120E-01
DAV:   5    -0.628347064743E+03    0.36030E-04   -0.64271E-04 24576   0.710E-02
  13 F= -.62834706E+03 E0= -.62834706E+03  d E =-.972954E-02  mag=    19.9980
       N       E                     dE             d eps       ncg     rms          rms(c)
DAV:   1    -0.628351719229E+03   -0.46185E-02   -0.10777E+00 21528   0.203E+00    0.294E-01
DAV:   2    -0.628354088016E+03   -0.23688E-02   -0.32068E-02 26184   0.378E-01    0.202E-01
DAV:   3    -0.628354102905E+03   -0.14889E-04   -0.26415E-03 29076   0.124E-01    0.108E-01
DAV:   4    -0.628354003103E+03    0.99802E-04   -0.39993E-04 20100   0.573E-02
  14 F= -.62835400E+03 E0= -.62835400E+03  d E =-.693836E-02  mag=    19.9983
       N       E                     dE             d eps       ncg     rms          rms(c)
DAV:   1    -0.628357447307E+03   -0.33444E-02   -0.87552E-01 21528   0.184E+00    0.193E-01
DAV:   2    -0.628359669439E+03   -0.22221E-02   -0.23870E-02 25920   0.331E-01    0.170E-01
DAV:   3    -0.628359664546E+03    0.48926E-05   -0.11927E-03 28584   0.835E-02    0.113E-01
DAV:   4    -0.628359607108E+03    0.57439E-04   -0.91296E-05 13536   0.314E-02
  15 F= -.62835961E+03 E0= -.62835961E+03  d E =-.560401E-02  mag=    19.9985
       N       E                     dE             d eps       ncg     rms          rms(c)
DAV:   1    -0.628362843795E+03   -0.31792E-02   -0.16288E+00 21504   0.249E+00    0.264E-01
DAV:   2    -0.628366805420E+03   -0.39616E-02   -0.41385E-02 24516   0.407E-01    0.190E-01
DAV:   3    -0.628366859991E+03   -0.54571E-04   -0.19090E-03 30168   0.870E-02    0.132E-01
DAV:   4    -0.628366748962E+03    0.11103E-03   -0.19223E-04 15648   0.460E-02    0.914E-02
DAV:   5    -0.628366737559E+03    0.11403E-04   -0.62055E-04 24372   0.651E-02
  16 F= -.62836674E+03 E0= -.62836674E+03  d E =-.713045E-02  mag=    19.9988
       N       E                     dE             d eps       ncg     rms          rms(c)
DAV:   1    -0.628367436765E+03   -0.68780E-03   -0.26589E+00 21504   0.319E+00    0.421E-01
DAV:   2    -0.628374326601E+03   -0.68898E-02   -0.74046E-02 26352   0.588E-01    0.271E-01
DAV:   3    -0.628374927560E+03   -0.60096E-03   -0.70157E-03 30048   0.170E-01    0.186E-01
DAV:   4    -0.628374672866E+03    0.25469E-03   -0.79747E-04 26664   0.709E-02    0.109E-01
DAV:   5    -0.628374571523E+03    0.10134E-03   -0.85475E-04 25476   0.741E-02    0.524E-02
DAV:   6    -0.628374555664E+03    0.15859E-04   -0.16698E-04 13728   0.403E-02
  17 F= -.62837456E+03 E0= -.62837456E+03  d E =-.781811E-02  mag=    19.9990
       N       E                     dE             d eps       ncg     rms          rms(c)
DAV:   1    -0.628371632110E+03    0.29394E-02   -0.51889E+00 21504   0.443E+00    0.522E-01
DAV:   2    -0.628385147204E+03   -0.13515E-01   -0.13994E-01 24408   0.742E-01    0.371E-01
DAV:   3    -0.628385273432E+03   -0.12623E-03   -0.66288E-03 29640   0.174E-01    0.216E-01
DAV:   4    -0.628384842280E+03    0.43115E-03   -0.18604E-03 29316   0.120E-01    0.138E-01
DAV:   5    -0.628384811571E+03    0.30709E-04   -0.11058E-03 26784   0.785E-02    0.774E-02
DAV:   6    -0.628384782169E+03    0.29402E-04   -0.16049E-04 13500   0.420E-02
  18 F= -.62838478E+03 E0= -.62838478E+03  d E =-.102265E-01  mag=    19.9992
       N       E                     dE             d eps       ncg     rms          rms(c)
DAV:   1    -0.628380369321E+03    0.44422E-02   -0.45607E+00 21504   0.418E+00    0.449E-01
DAV:   2    -0.628392738335E+03   -0.12369E-01   -0.12426E-01 24360   0.714E-01    0.301E-01
DAV:   3    -0.628392876817E+03   -0.13848E-03   -0.50662E-03 29976   0.156E-01    0.187E-01
DAV:   4    -0.628392609728E+03    0.26709E-03   -0.87418E-04 27324   0.820E-02    0.127E-01
DAV:   5    -0.628392466303E+03    0.14343E-03   -0.73516E-04 26280   0.984E-02    0.464E-02
DAV:   6    -0.628392507364E+03   -0.41061E-04   -0.56510E-04 23412   0.522E-02
  19 F= -.62839251E+03 E0= -.62839251E+03  d E =-.772520E-02  mag=    19.9994
       N       E                     dE             d eps       ncg     rms          rms(c)
DAV:   1    -0.628393448298E+03   -0.98200E-03   -0.23999E-01 21768   0.961E-01    0.124E-01
DAV:   2    -0.628394014809E+03   -0.56651E-03   -0.73712E-03 27588   0.194E-01    0.131E-01
DAV:   3    -0.628393972881E+03    0.41927E-04   -0.44544E-04 21612   0.567E-02
  20 F= -.62839397E+03 E0= -.62839397E+03  d E =-.146552E-02  mag=    19.9994
       N       E                     dE             d eps       ncg     rms          rms(c)
DAV:   1    -0.628395068684E+03   -0.10539E-02   -0.57198E-01 21504   0.147E+00    0.163E-01
DAV:   2    -0.628396452339E+03   -0.13837E-02   -0.14177E-02 23940   0.240E-01    0.107E-01
DAV:   3    -0.628396457982E+03   -0.56432E-05   -0.59511E-04 24168   0.493E-02
  21 F= -.62839646E+03 E0= -.62839646E+03  d E =-.248510E-02  mag=    19.9995
       N       E                     dE             d eps       ncg     rms          rms(c)
DAV:   1    -0.628397619947E+03   -0.11676E-02   -0.62148E-01 21504   0.153E+00    0.174E-01
DAV:   2    -0.628398984841E+03   -0.13649E-02   -0.15178E-02 23976   0.245E-01    0.114E-01
DAV:   3    -0.628398973263E+03    0.11578E-04   -0.73807E-04 26364   0.592E-02
  22 F= -.62839897E+03 E0= -.62839897E+03  d E =-.251528E-02  mag=    19.9995
       N       E                     dE             d eps       ncg     rms          rms(c)
DAV:   1    -0.628395599104E+03    0.33857E-02   -0.38091E+00 21504   0.379E+00    0.392E-01
DAV:   2    -0.628404839719E+03   -0.92406E-02   -0.95389E-02 23592   0.611E-01    0.239E-01
DAV:   3    -0.628404901923E+03   -0.62204E-04   -0.40375E-03 30408   0.120E-01    0.154E-01
DAV:   4    -0.628404587654E+03    0.31427E-03   -0.10587E-03 27240   0.952E-02    0.869E-02
DAV:   5    -0.628404572382E+03    0.15272E-04   -0.77841E-04 24636   0.631E-02
  23 F= -.62840457E+03 E0= -.62840457E+03  d E =-.559912E-02  mag=    19.9996
       N       E                     dE             d eps       ncg     rms          rms(c)
DAV:   1    -0.628384113632E+03    0.20474E-01   -0.10782E+01 21504   0.640E+00    0.727E-01
DAV:   2    -0.628412413038E+03   -0.28299E-01   -0.27983E-01 23916   0.106E+00    0.400E-01
DAV:   3    -0.628413451029E+03   -0.10380E-02   -0.14523E-02 29964   0.233E-01    0.252E-01
DAV:   4    -0.628412782165E+03    0.66886E-03   -0.21420E-03 29988   0.120E-01    0.159E-01
DAV:   5    -0.628412521230E+03    0.26094E-03   -0.20390E-03 30276   0.129E-01    0.761E-02
DAV:   6    -0.628412542715E+03   -0.21486E-04   -0.70929E-04 24072   0.615E-02
  24 F= -.62841254E+03 E0= -.62841254E+03  d E =-.797033E-02  mag=    19.9997
       N       E                     dE             d eps       ncg     rms          rms(c)
DAV:   1    -0.628392385490E+03    0.20136E-01   -0.57965E+00 21504   0.469E+00    0.491E-01
DAV:   2    -0.628407102948E+03   -0.14717E-01   -0.14690E-01 23580   0.760E-01    0.280E-01
DAV:   3    -0.628407418683E+03   -0.31573E-03   -0.64813E-03 30876   0.154E-01    0.180E-01
DAV:   4    -0.628407090249E+03    0.32843E-03   -0.70887E-04 25512   0.700E-02    0.119E-01
DAV:   5    -0.628406887439E+03    0.20281E-03   -0.93795E-04 25788   0.898E-02    0.520E-02
DAV:   6    -0.628406906630E+03   -0.19191E-04   -0.35849E-04 19044   0.437E-02
  25 F= -.62840691E+03 E0= -.62840691E+03  d E =0.563609E-02  mag=    19.9998
       N       E                     dE             d eps       ncg     rms          rms(c)
DAV:   1    -0.628407192993E+03   -0.30555E-03   -0.90834E-01 21504   0.185E+00    0.172E-01
DAV:   2    -0.628409301505E+03   -0.21085E-02   -0.23200E-02 24900   0.305E-01    0.144E-01
DAV:   3    -0.628409267253E+03    0.34253E-04   -0.10230E-03 27300   0.708E-02    0.822E-02
DAV:   4    -0.628409179790E+03    0.87463E-04   -0.15430E-04 15012   0.472E-02
  26 F= -.62840918E+03 E0= -.62840918E+03  d E =-.227316E-02  mag=    19.9998
       N       E                     dE             d eps       ncg     rms          rms(c)
DAV:   1    -0.628404244197E+03    0.50231E-02   -0.37615E+00 21504   0.378E+00    0.435E-01
DAV:   2    -0.628413603441E+03   -0.93592E-02   -0.94871E-02 23772   0.619E-01    0.239E-01
DAV:   3    -0.628413939708E+03   -0.33627E-03   -0.52739E-03 31332   0.142E-01    0.151E-01
DAV:   4    -0.628413708138E+03    0.23157E-03   -0.63967E-04 24588   0.663E-02    0.948E-02
DAV:   5    -0.628413608124E+03    0.10001E-03   -0.71821E-04 24780   0.758E-02    0.453E-02
DAV:   6    -0.628413614891E+03   -0.67672E-05   -0.22379E-04 15216   0.371E-02
  27 F= -.62841361E+03 E0= -.62841361E+03  d E =-.443510E-02  mag=    19.9998
       N       E                     dE             d eps       ncg     rms          rms(c)
DAV:   1    -0.628409159458E+03    0.44487E-02   -0.31831E+00 21504   0.346E+00    0.392E-01
DAV:   2    -0.628417204210E+03   -0.80448E-02   -0.81546E-02 24096   0.571E-01    0.237E-01
DAV:   3    -0.628417465557E+03   -0.26135E-03   -0.43426E-03 29808   0.128E-01    0.149E-01
DAV:   4    -0.628417257986E+03    0.20757E-03   -0.70211E-04 25728   0.696E-02    0.930E-02
DAV:   5    -0.628417208389E+03    0.49597E-04   -0.57471E-04 24084   0.614E-02
  28 F= -.62841721E+03 E0= -.62841721E+03  d E =-.359350E-02  mag=    19.9999
       N       E                     dE             d eps       ncg     rms          rms(c)
DAV:   1    -0.628415869927E+03    0.13881E-02   -0.15007E+00 21504   0.239E+00    0.268E-01
DAV:   2    -0.628419618305E+03   -0.37484E-02   -0.39573E-02 23532   0.397E-01    0.146E-01
DAV:   3    -0.628419663656E+03   -0.45351E-04   -0.16576E-03 29268   0.865E-02    0.920E-02
DAV:   4    -0.628419567060E+03    0.96596E-04   -0.41521E-04 20052   0.555E-02
  29 F= -.62841957E+03 E0= -.62841957E+03  d E =-.235867E-02  mag=    19.9999
       N       E                     dE             d eps       ncg     rms          rms(c)
DAV:   1    -0.628419946106E+03   -0.28245E-03   -0.20068E-01 21624   0.876E-01    0.118E-01
DAV:   2    -0.628420351893E+03   -0.40579E-03   -0.49552E-03 25668   0.146E-01    0.823E-02
DAV:   3    -0.628420342572E+03    0.93211E-05   -0.20380E-04 16656   0.395E-02
  30 F= -.62842034E+03 E0= -.62842034E+03  d E =-.775512E-03  mag=    19.9999
       N       E                     dE             d eps       ncg     rms          rms(c)
DAV:   1    -0.628420376743E+03   -0.24850E-04   -0.70976E-04 19704   0.537E-02    0.321E-02
DAV:   2    -0.628420374297E+03    0.24459E-05   -0.39582E-05 12192   0.168E-02
  31 F= -.62842037E+03 E0= -.62842037E+03  d E =-.317251E-04  mag=    19.9999
       N       E                     dE             d eps       ncg     rms          rms(c)
DAV:   1    -0.628420740626E+03   -0.36388E-03   -0.16669E-01 21588   0.795E-01    0.103E-01
DAV:   2    -0.628421068594E+03   -0.32797E-03   -0.45187E-03 25260   0.137E-01    0.732E-02
DAV:   3    -0.628421058170E+03    0.10425E-04   -0.22149E-04 16704   0.378E-02
  32 F= -.62842106E+03 E0= -.62842106E+03  d E =-.683872E-03  mag=    19.9999
       N       E                     dE             d eps       ncg     rms          rms(c)
DAV:   1    -0.628421284781E+03   -0.21619E-03   -0.25179E-02 21888   0.309E-01    0.382E-02
DAV:   2    -0.628421340363E+03   -0.55582E-04   -0.67963E-04 22116   0.547E-02
  33 F= -.62842134E+03 E0= -.62842134E+03  d E =-.282193E-03  mag=    19.9999
       N       E                     dE             d eps       ncg     rms          rms(c)
DAV:   1    -0.628421504801E+03   -0.22002E-03   -0.56434E-03 22356   0.157E-01    0.636E-02
DAV:   2    -0.628421446521E+03    0.58280E-04   -0.30710E-04 15720   0.474E-02
  34 F= -.62842145E+03 E0= -.62842145E+03  d E =-.106158E-03  mag=    19.9999
       N       E                     dE             d eps       ncg     rms          rms(c)
DAV:   1    -0.628421991810E+03   -0.48701E-03   -0.37503E-02 22008   0.418E-01    0.236E-01
DAV:   2    -0.628421311289E+03    0.68052E-03   -0.50165E-03 31320   0.175E-01    0.178E-01
DAV:   3    -0.628421171718E+03    0.13957E-03   -0.98507E-04 27624   0.850E-02    0.742E-02
DAV:   4    -0.628421153595E+03    0.18123E-04   -0.10744E-04 12924   0.290E-02
  35 F= -.62842115E+03 E0= -.62842115E+03  d E =0.292926E-03  mag=    19.9999
       N       E                     dE             d eps       ncg     rms          rms(c)
DAV:   1    -0.628424318215E+03   -0.31465E-02   -0.27579E-01 21588   0.109E+00    0.409E-01
DAV:   2    -0.628422442657E+03    0.18756E-02   -0.16946E-02 31368   0.310E-01    0.282E-01
DAV:   3    -0.628422072031E+03    0.37063E-03   -0.28399E-03 29880   0.150E-01    0.128E-01
DAV:   4    -0.628421976974E+03    0.95057E-04   -0.54682E-04 23460   0.561E-02
  36 F= -.62842198E+03 E0= -.62842198E+03  d E =-.823380E-03  mag=    19.9999
       N       E                     dE             d eps       ncg     rms          rms(c)
DAV:   1    -0.628422774544E+03   -0.70251E-03   -0.88554E-02 21648   0.605E-01    0.195E-01
DAV:   2    -0.628422436952E+03    0.33759E-03   -0.45589E-03 29832   0.169E-01    0.149E-01
DAV:   3    -0.628422373549E+03    0.63403E-04   -0.79205E-04 26976   0.729E-02
  37 F= -.62842237E+03 E0= -.62842237E+03  d E =-.396575E-03  mag=    20.0000
       N       E                     dE             d eps       ncg     rms          rms(c)
DAV:   1    -0.628422536016E+03   -0.99063E-04   -0.17527E-01 21528   0.821E-01    0.135E-01
DAV:   2    -0.628422985103E+03   -0.44909E-03   -0.74653E-03 28440   0.203E-01    0.180E-01
DAV:   3    -0.628422899594E+03    0.85508E-04   -0.55443E-04 22620   0.566E-02
  38 F= -.62842290E+03 E0= -.62842290E+03  d E =-.526045E-03  mag=    20.0000
       N       E                     dE             d eps       ncg     rms          rms(c)
DAV:   1    -0.628423316170E+03   -0.33107E-03   -0.18466E-02 21936   0.284E-01    0.118E-01
DAV:   2    -0.628423255776E+03    0.60394E-04   -0.23118E-03 31800   0.115E-01    0.954E-02
DAV:   3    -0.628423170510E+03    0.85267E-04   -0.36348E-04 21828   0.519E-02
  39 F= -.62842317E+03 E0= -.62842317E+03  d E =-.270915E-03  mag=    20.0000
       N       E                     dE             d eps       ncg     rms          rms(c)
DAV:   1    -0.628423435190E+03   -0.17941E-03   -0.19255E-01 21528   0.851E-01    0.111E-01
DAV:   2    -0.628423839387E+03   -0.40420E-03   -0.52518E-03 26964   0.164E-01    0.118E-01
DAV:   3    -0.628423837269E+03    0.21184E-05   -0.54441E-04 23736   0.494E-02
  40 F= -.62842384E+03 E0= -.62842384E+03  d E =-.666759E-03  mag=    20.0000
       N       E                     dE             d eps       ncg     rms          rms(c)
DAV:   1    -0.628424127253E+03   -0.28787E-03   -0.49769E-02 21552   0.439E-01    0.894E-02
DAV:   2    -0.628424217453E+03   -0.90201E-04   -0.23998E-03 29316   0.115E-01    0.882E-02
DAV:   3    -0.628424165332E+03    0.52121E-04   -0.20211E-04 15864   0.405E-02
  41 F= -.62842417E+03 E0= -.62842417E+03  d E =-.328063E-03  mag=    20.0000
       N       E                     dE             d eps       ncg     rms          rms(c)
DAV:   1    -0.628424398131E+03   -0.18068E-03   -0.99104E-02 21540   0.615E-01    0.674E-02
DAV:   2    -0.628424631346E+03   -0.23321E-03   -0.25160E-03 25608   0.105E-01    0.527E-02
DAV:   3    -0.628424622618E+03    0.87284E-05   -0.93797E-05 13236   0.257E-02
  42 F= -.62842462E+03 E0= -.62842462E+03  d E =-.457286E-03  mag=    20.0000
       N       E                     dE             d eps       ncg     rms          rms(c)
DAV:   1    -0.628424851363E+03   -0.22002E-03   -0.29146E-02 21552   0.329E-01    0.503E-02
DAV:   2    -0.628424906628E+03   -0.55265E-04   -0.90259E-04 26172   0.701E-02
  43 F= -.62842491E+03 E0= -.62842491E+03  d E =-.284011E-03  mag=    20.0000
       N       E                     dE             d eps       ncg     rms          rms(c)
DAV:   1    -0.628425128508E+03   -0.27714E-03   -0.52630E-02 21552   0.448E-01    0.685E-02
DAV:   2    -0.628425242589E+03   -0.11408E-03   -0.14752E-03 26532   0.844E-02    0.529E-02
DAV:   3    -0.628425232451E+03    0.10138E-04   -0.87942E-05 12900   0.268E-02
  44 F= -.62842523E+03 E0= -.62842523E+03  d E =-.325823E-03  mag=    20.0000
       N       E                     dE             d eps       ncg     rms          rms(c)
DAV:   1    -0.628425418063E+03   -0.17547E-03   -0.12910E-01 21528   0.700E-01    0.724E-02
DAV:   2    -0.628425734676E+03   -0.31661E-03   -0.36055E-03 26148   0.129E-01    0.753E-02
DAV:   3    -0.628425722566E+03    0.12110E-04   -0.19141E-04 14760   0.337E-02
  45 F= -.62842572E+03 E0= -.62842572E+03  d E =-.490115E-03  mag=    20.0000
       N       E                     dE             d eps       ncg     rms          rms(c)
DAV:   1    -0.628425919294E+03   -0.18462E-03   -0.17453E-02 21600   0.259E-01    0.524E-02
DAV:   2    -0.628425952334E+03   -0.33040E-04   -0.87093E-04 27408   0.670E-02
  46 F= -.62842595E+03 E0= -.62842595E+03  d E =-.229768E-03  mag=    20.0000
       N       E                     dE             d eps       ncg     rms          rms(c)
DAV:   1    -0.628426165231E+03   -0.24594E-03   -0.84475E-02 21528   0.567E-01    0.766E-02
DAV:   2    -0.628426361703E+03   -0.19647E-03   -0.22556E-03 25764   0.100E-01    0.549E-02
DAV:   3    -0.628426352823E+03    0.88795E-05   -0.10223E-04 12948   0.292E-02
  47 F= -.62842635E+03 E0= -.62842635E+03  d E =-.400489E-03  mag=    20.0000
       N       E                     dE             d eps       ncg     rms          rms(c)
DAV:   1    -0.628426523200E+03   -0.16150E-03   -0.24770E-02 21624   0.305E-01    0.353E-02
DAV:   2    -0.628426577309E+03   -0.54109E-04   -0.61973E-04 21852   0.510E-02
  48 F= -.62842658E+03 E0= -.62842658E+03  d E =-.224486E-03  mag=    20.0000
       N       E                     dE             d eps       ncg     rms          rms(c)
DAV:   1    -0.628426875314E+03   -0.35211E-03   -0.67573E-02 21528   0.507E-01    0.873E-02
DAV:   2    -0.628426962788E+03   -0.87474E-04   -0.20590E-03 28008   0.976E-02    0.690E-02
DAV:   3    -0.628426941761E+03    0.21027E-04   -0.12941E-04 14220   0.356E-02
  49 F= -.62842694E+03 E0= -.62842694E+03  d E =-.364452E-03  mag=    20.0000
       N       E                     dE             d eps       ncg     rms          rms(c)
DAV:   1    -0.628427092089E+03   -0.12930E-03   -0.17305E-02 21648   0.258E-01    0.379E-02
DAV:   2    -0.628427127152E+03   -0.35063E-04   -0.47562E-04 21228   0.491E-02
  50 F= -.62842713E+03 E0= -.62842713E+03  d E =-.185390E-03  mag=    20.0000
       N       E                     dE             d eps       ncg     rms          rms(c)
DAV:   1    -0.628427290829E+03   -0.19874E-03   -0.11617E-01 21504   0.661E-01    0.896E-02
DAV:   2    -0.628427553410E+03   -0.26258E-03   -0.30410E-03 25356   0.113E-01    0.639E-02
DAV:   3    -0.628427552934E+03    0.47649E-06   -0.15038E-04 14676   0.282E-02
  51 F= -.62842755E+03 E0= -.62842755E+03  d E =-.425782E-03  mag=    20.0000
       N       E                     dE             d eps       ncg     rms          rms(c)
DAV:   1    -0.628427388069E+03    0.16534E-03   -0.13156E-02 21576   0.225E-01    0.384E-02
DAV:   2    -0.628427434540E+03   -0.46470E-04   -0.46459E-04 20280   0.524E-02
  52 F= -.62842743E+03 E0= -.62842743E+03  d E =0.118394E-03  mag=    20.0000
       N       E                     dE             d eps       ncg     rms          rms(c)
DAV:   1    -0.628427531095E+03   -0.14303E-03   -0.38152E-03 21384   0.125E-01    0.326E-02
DAV:   2    -0.628427524252E+03    0.68425E-05   -0.12609E-04 12432   0.290E-02
  53 F= -.62842752E+03 E0= -.62842752E+03  d E =-.897124E-04  mag=    20.0000
       N       E                     dE             d eps       ncg     rms          rms(c)
DAV:   1    -0.628427847075E+03   -0.31598E-03   -0.95436E-02 21648   0.613E-01    0.113E-01
DAV:   2    -0.628427896769E+03   -0.49694E-04   -0.30172E-03 26388   0.119E-01    0.765E-02
DAV:   3    -0.628427875305E+03    0.21465E-04   -0.19621E-04 16296   0.439E-02
  54 F= -.62842788E+03 E0= -.62842788E+03  d E =-.351053E-03  mag=    20.0000
       N       E                     dE             d eps       ncg     rms          rms(c)
DAV:   1    -0.628428074611E+03   -0.17784E-03   -0.32180E-02 21504   0.346E-01    0.523E-02
DAV:   2    -0.628428152547E+03   -0.77936E-04   -0.95635E-04 25152   0.688E-02
  55 F= -.62842815E+03 E0= -.62842815E+03  d E =-.277242E-03  mag=    20.0000
       N       E                     dE             d eps       ncg     rms          rms(c)
DAV:   1    -0.628428389218E+03   -0.31461E-03   -0.29265E-02 21684   0.341E-01    0.861E-02
DAV:   2    -0.628428367089E+03    0.22129E-04   -0.10803E-03 26748   0.771E-02    0.659E-02
DAV:   3    -0.628428349053E+03    0.18037E-04   -0.10625E-04 14952   0.325E-02
  56 F= -.62842835E+03 E0= -.62842835E+03  d E =-.196506E-03  mag=    20.0000
       N       E                     dE             d eps       ncg     rms          rms(c)
DAV:   1    -0.628428459482E+03   -0.92392E-04   -0.14485E-01 21504   0.741E-01    0.803E-02
DAV:   2    -0.628428807079E+03   -0.34760E-03   -0.41647E-03 26004   0.143E-01    0.916E-02
DAV:   3    -0.628428797295E+03    0.97837E-05   -0.22002E-04 15048   0.366E-02
  57 F= -.62842880E+03 E0= -.62842880E+03  d E =-.448243E-03  mag=    20.0000
       N       E                     dE             d eps       ncg     rms          rms(c)
DAV:   1    -0.628428918481E+03   -0.11140E-03   -0.58625E-03 21576   0.149E-01    0.556E-02
DAV:   2    -0.628428927131E+03   -0.86504E-05   -0.71083E-04 25644   0.606E-02
  58 F= -.62842893E+03 E0= -.62842893E+03  d E =-.129836E-03  mag=    20.0000
       N       E                     dE             d eps       ncg     rms          rms(c)
DAV:   1    -0.628429081072E+03   -0.16259E-03   -0.75078E-02 21504   0.533E-01    0.694E-02
DAV:   2    -0.628429264807E+03   -0.18374E-03   -0.19606E-03 25272   0.916E-02    0.453E-02
DAV:   3    -0.628429260158E+03    0.46498E-05   -0.86240E-05 12696   0.258E-02
  59 F= -.62842926E+03 E0= -.62842926E+03  d E =-.333026E-03  mag=    20.0000
       N       E                     dE             d eps       ncg     rms          rms(c)
DAV:   1    -0.628429430666E+03   -0.16586E-03   -0.37583E-02 21540   0.376E-01    0.424E-02
DAV:   2    -0.628429508192E+03   -0.77526E-04   -0.93443E-04 23592   0.606E-02
  60 F= -.62842951E+03 E0= -.62842951E+03  d E =-.248034E-03  mag=    20.0000
       N       E                     dE             d eps       ncg     rms          rms(c)
DAV:   1    -0.628429628033E+03   -0.19737E-03   -0.27666E-01 21504   0.102E+00    0.162E-01
DAV:   2    -0.628430171260E+03   -0.54323E-03   -0.75266E-03 25884   0.180E-01    0.111E-01
DAV:   3    -0.628430158351E+03    0.12909E-04   -0.51079E-04 23004   0.601E-02
  61 F= -.62843016E+03 E0= -.62843016E+03  d E =-.650159E-03  mag=    20.0000
       N       E                     dE             d eps       ncg     rms          rms(c)
DAV:   1    -0.628429754146E+03    0.41711E-03   -0.55161E-02 21504   0.460E-01    0.882E-02
DAV:   2    -0.628429873601E+03   -0.11946E-03   -0.18188E-03 26280   0.928E-02    0.560E-02
DAV:   3    -0.628429870599E+03    0.30023E-05   -0.12614E-04 13656   0.351E-02
  62 F= -.62842987E+03 E0= -.62842987E+03  d E =0.287752E-03  mag=    20.0000
       N       E                     dE             d eps       ncg     rms          rms(c)
DAV:   1    -0.628430116515E+03   -0.24291E-03   -0.41082E-02 21624   0.411E-01    0.108E-01
DAV:   2    -0.628430069887E+03    0.46628E-04   -0.16822E-03 27528   0.928E-02    0.752E-02
DAV:   3    -0.628430045578E+03    0.24309E-04   -0.14785E-04 15888   0.400E-02
  63 F= -.62843005E+03 E0= -.62843005E+03  d E =-.174979E-03  mag=    20.0000
       N       E                     dE             d eps       ncg     rms          rms(c)
DAV:   1    -0.628430252714E+03   -0.18283E-03   -0.43159E-02 21552   0.406E-01    0.550E-02
DAV:   2    -0.628430324730E+03   -0.72015E-04   -0.11751E-03 23904   0.693E-02    0.292E-02
DAV:   3    -0.628430320348E+03    0.43823E-05   -0.50455E-05 11904   0.229E-02
  64 F= -.62843032E+03 E0= -.62843032E+03  d E =-.274770E-03  mag=    20.0000
       N       E                     dE             d eps       ncg     rms          rms(c)
DAV:   1    -0.628430311150E+03    0.13580E-04   -0.24321E-03 20100   0.968E-02    0.236E-02
DAV:   2    -0.628430313085E+03   -0.19351E-05   -0.72836E-05 11916   0.229E-02
  65 F= -.62843031E+03 E0= -.62843031E+03  d E =0.726293E-05  mag=    20.0000
       N       E                     dE             d eps       ncg     rms          rms(c)
DAV:   1    -0.628430445759E+03   -0.13461E-03   -0.77344E-02 21504   0.540E-01    0.561E-02
DAV:   2    -0.628430634852E+03   -0.18909E-03   -0.21986E-03 27576   0.105E-01    0.669E-02
DAV:   3    -0.628430628858E+03    0.59940E-05   -0.10158E-04 12720   0.270E-02
  66 F= -.62843063E+03 E0= -.62843063E+03  d E =-.315773E-03  mag=    20.0000
       N       E                     dE             d eps       ncg     rms          rms(c)
DAV:   1    -0.628430756470E+03   -0.12162E-03   -0.24395E-02 21552   0.304E-01    0.394E-02
DAV:   2    -0.628430817877E+03   -0.61407E-04   -0.76380E-04 24552   0.592E-02
  67 F= -.62843082E+03 E0= -.62843082E+03  d E =-.189019E-03  mag=    20.0000
       N       E                     dE             d eps       ncg     rms          rms(c)
DAV:   1    -0.628430818809E+03   -0.62339E-04   -0.52988E-03 21684   0.153E-01    0.599E-02
DAV:   2    -0.628430773114E+03    0.45695E-04   -0.30386E-04 16500   0.461E-02
  68 F= -.62843077E+03 E0= -.62843077E+03  d E =0.447629E-04  mag=    20.0000
       N       E                     dE             d eps       ncg     rms          rms(c)
DAV:   1    -0.628430692427E+03    0.12638E-03   -0.15688E-01 21600   0.810E-01    0.238E-01
DAV:   2    -0.628430222276E+03    0.47015E-03   -0.74463E-03 30720   0.203E-01    0.165E-01
DAV:   3    -0.628430099802E+03    0.12247E-03   -0.10381E-03 28284   0.900E-02    0.744E-02
DAV:   4    -0.628430070829E+03    0.28973E-04   -0.14624E-04 13572   0.350E-02
  69 F= -.62843007E+03 E0= -.62843007E+03  d E =0.702285E-03  mag=    20.0000
       N       E                     dE             d eps       ncg     rms          rms(c)
DAV:   1    -0.628431159801E+03   -0.10600E-02   -0.65100E-01 21552   0.160E+00    0.314E-01
DAV:   2    -0.628431500811E+03   -0.34101E-03   -0.21790E-02 27972   0.325E-01    0.227E-01
DAV:   3    -0.628431322613E+03    0.17820E-03   -0.20577E-03 28584   0.124E-01    0.997E-02
DAV:   4    -0.628431252054E+03    0.70559E-04   -0.23914E-04 14976   0.459E-02
  70 F= -.62843125E+03 E0= -.62843125E+03  d E =-.118123E-02  mag=    20.0000
       N       E                     dE             d eps       ncg     rms          rms(c)
DAV:   1    -0.628431018094E+03    0.30452E-03   -0.42751E-02 21504   0.397E-01    0.113E-01
DAV:   2    -0.628431024591E+03   -0.64971E-05   -0.22078E-03 29052   0.123E-01    0.121E-01
DAV:   3    -0.628431003985E+03    0.20606E-04   -0.35998E-04 20676   0.407E-02
  71 F= -.62843100E+03 E0= -.62843100E+03  d E =0.248069E-03  mag=    20.0000
       N       E                     dE             d eps       ncg     rms          rms(c)
DAV:   1    -0.628431269942E+03   -0.24535E-03   -0.11533E-01 21504   0.661E-01    0.954E-02
DAV:   2    -0.628431570352E+03   -0.30041E-03   -0.42965E-03 28260   0.141E-01    0.112E-01
DAV:   3    -0.628431530103E+03    0.40249E-04   -0.24856E-04 16104   0.412E-02
  72 F= -.62843153E+03 E0= -.62843153E+03  d E =-.526118E-03  mag=    20.0000
       N       E                     dE             d eps       ncg     rms          rms(c)
DAV:   1    -0.628431628115E+03   -0.57763E-04   -0.97059E-03 21696   0.202E-01    0.102E-01
DAV:   2    -0.628431500780E+03    0.12733E-03   -0.60900E-04 24672   0.650E-02    0.622E-02
DAV:   3    -0.628431478197E+03    0.22583E-04   -0.13345E-04 16404   0.415E-02
  73 F= -.62843148E+03 E0= -.62843148E+03  d E =0.519062E-04  mag=    20.0000
       N       E                     dE             d eps       ncg     rms          rms(c)
DAV:   1    -0.628431824406E+03   -0.32363E-03   -0.17954E-02 21696   0.266E-01    0.103E-01
DAV:   2    -0.628431676310E+03    0.14810E-03   -0.10817E-03 26376   0.869E-02    0.695E-02
DAV:   3    -0.628431654627E+03    0.21683E-04   -0.17515E-04 15708   0.429E-02
  74 F= -.62843165E+03 E0= -.62843165E+03  d E =-.176430E-03  mag=    20.0000
       N       E                     dE             d eps       ncg     rms          rms(c)
DAV:   1    -0.628431748990E+03   -0.72679E-04   -0.76164E-02 21504   0.539E-01    0.644E-02
DAV:   2    -0.628431943953E+03   -0.19496E-03   -0.19314E-03 25608   0.917E-02    0.503E-02
DAV:   3    -0.628431944716E+03   -0.76296E-06   -0.68992E-05 12468   0.214E-02
  75 F= -.62843194E+03 E0= -.62843194E+03  d E =-.290089E-03  mag=    20.0000
       N       E                     dE             d eps       ncg     rms          rms(c)
DAV:   1    -0.628432049708E+03   -0.10575E-03   -0.74084E-03 21552   0.167E-01    0.344E-02
DAV:   2    -0.628432051613E+03   -0.19048E-05   -0.21293E-04 14376   0.370E-02
  76 F= -.62843205E+03 E0= -.62843205E+03  d E =-.106897E-03  mag=    20.0000
       N       E                     dE             d eps       ncg     rms          rms(c)
DAV:   1    -0.628432202216E+03   -0.15251E-03   -0.33604E-02 21504   0.359E-01    0.725E-02
DAV:   2    -0.628432233109E+03   -0.30892E-04   -0.10408E-03 26196   0.694E-02    0.480E-02
DAV:   3    -0.628432224632E+03    0.84766E-05   -0.73958E-05 13272   0.259E-02
  77 F= -.62843222E+03 E0= -.62843222E+03  d E =-.173019E-03  mag=    20.0000
       N       E                     dE             d eps       ncg     rms          rms(c)
DAV:   1    -0.628432339423E+03   -0.10631E-03   -0.46246E-02 21528   0.418E-01    0.515E-02
DAV:   2    -0.628432451480E+03   -0.11206E-03   -0.14384E-03 25284   0.842E-02    0.598E-02
DAV:   3    -0.628432446374E+03    0.51057E-05   -0.81900E-05 12252   0.223E-02
  78 F= -.62843245E+03 E0= -.62843245E+03  d E =-.221742E-03  mag=    20.0000
       N       E                     dE             d eps       ncg     rms          rms(c)
DAV:   1    -0.628432592216E+03   -0.14074E-03   -0.81251E-03 21696   0.181E-01    0.653E-02
DAV:   2    -0.628432557097E+03    0.35119E-04   -0.50300E-04 22956   0.529E-02
  79 F= -.62843256E+03 E0= -.62843256E+03  d E =-.110723E-03  mag=    20.0000
       N       E                     dE             d eps       ncg     rms          rms(c)
DAV:   1    -0.628432688984E+03   -0.96769E-04   -0.51173E-02 21504   0.436E-01    0.572E-02
DAV:   2    -0.628432800822E+03   -0.11184E-03   -0.13488E-03 26148   0.802E-02    0.503E-02
DAV:   3    -0.628432797842E+03    0.29798E-05   -0.75978E-05 12468   0.222E-02
  80 F= -.62843280E+03 E0= -.62843280E+03  d E =-.240745E-03  mag=    20.0000
       N       E                     dE             d eps       ncg     rms          rms(c)
DAV:   1    -0.628432874399E+03   -0.73577E-04   -0.75080E-03 21384   0.170E-01    0.276E-02
DAV:   2    -0.628432887346E+03   -0.12947E-04   -0.19794E-04 13584   0.323E-02
  81 F= -.62843289E+03 E0= -.62843289E+03  d E =-.895034E-04  mag=    20.0000
       N       E                     dE             d eps       ncg     rms          rms(c)
DAV:   1    -0.628433034180E+03   -0.15978E-03   -0.50083E-02 21528   0.439E-01    0.666E-02
DAV:   2    -0.628433120868E+03   -0.86689E-04   -0.13821E-03 25668   0.765E-02    0.411E-02
DAV:   3    -0.628433114515E+03    0.63528E-05   -0.58673E-05 12360   0.240E-02
  82 F= -.62843311E+03 E0= -.62843311E+03  d E =-.227170E-03  mag=    20.0000
       N       E                     dE             d eps       ncg     rms          rms(c)
DAV:   1    -0.628433109982E+03    0.10886E-04   -0.44762E-05 11808   0.162E-02    0.142E-02
DAV:   2    -0.628433110087E+03   -0.10466E-06   -0.15552E-05 11760   0.121E-02
  83 F= -.62843311E+03 E0= -.62843311E+03  d E =0.442869E-05  mag=    20.0000
       N       E                     dE             d eps       ncg     rms          rms(c)
DAV:   1    -0.628433239788E+03   -0.12981E-03   -0.58295E-02 21528   0.475E-01    0.701E-02
DAV:   2    -0.628433326280E+03   -0.86492E-04   -0.16624E-03 25080   0.843E-02    0.411E-02
DAV:   3    -0.628433314683E+03    0.11597E-04   -0.68187E-05 13404   0.277E-02
  84 F= -.62843331E+03 E0= -.62843331E+03  d E =-.204596E-03  mag=    20.0000
       N       E                     dE             d eps       ncg     rms          rms(c)
DAV:   1    -0.628433352525E+03   -0.26245E-04   -0.34696E-03 21168   0.118E-01    0.329E-02
DAV:   2    -0.628433345098E+03    0.74269E-05   -0.94791E-05 11760   0.237E-02
  85 F= -.62843335E+03 E0= -.62843335E+03  d E =-.304155E-04  mag=    20.0000
       N       E                     dE             d eps       ncg     rms          rms(c)
DAV:   1    -0.628433538527E+03   -0.18600E-03   -0.47255E-02 21696   0.446E-01    0.146E-01
DAV:   2    -0.628433330216E+03    0.20831E-03   -0.22197E-03 26496   0.108E-01    0.879E-02
DAV:   3    -0.628433288367E+03    0.41849E-04   -0.23548E-04 17808   0.531E-02
  86 F= -.62843329E+03 E0= -.62843329E+03  d E =0.567310E-04  mag=    20.0000
       N       E                     dE             d eps       ncg     rms          rms(c)
DAV:   1    -0.628433372608E+03   -0.42391E-04   -0.86200E-02 21528   0.574E-01    0.600E-02
DAV:   2    -0.628433610979E+03   -0.23837E-03   -0.25017E-03 24720   0.104E-01    0.579E-02
DAV:   3    -0.628433602640E+03    0.83391E-05   -0.73367E-05 12288   0.246E-02
  87 F= -.62843360E+03 E0= -.62843360E+03  d E =-.314273E-03  mag=    20.0000
       N       E                     dE             d eps       ncg     rms          rms(c)
DAV:   1    -0.628433832281E+03   -0.22130E-03   -0.16762E-02 21624   0.266E-01    0.885E-02
DAV:   2    -0.628433749858E+03    0.82424E-04   -0.86700E-04 24756   0.687E-02
  88 F= -.62843375E+03 E0= -.62843375E+03  d E =-.147218E-03  mag=    20.0000
       N       E                     dE             d eps       ncg     rms          rms(c)
DAV:   1    -0.628433846478E+03   -0.14196E-04   -0.44712E-02 21540   0.412E-01    0.655E-02
DAV:   2    -0.628433933981E+03   -0.87503E-04   -0.12072E-03 25656   0.728E-02    0.422E-02
DAV:   3    -0.628433927361E+03    0.66199E-05   -0.50225E-05 12708   0.225E-02
  89 F= -.62843393E+03 E0= -.62843393E+03  d E =-.177503E-03  mag=    20.0000
       N       E                     dE             d eps       ncg     rms          rms(c)
DAV:   1    -0.628433890379E+03    0.43602E-04   -0.85158E-04 19752   0.595E-02    0.226E-02
DAV:   2    -0.628433887533E+03    0.28465E-05   -0.37126E-05 11688   0.160E-02
  90 F= -.62843389E+03 E0= -.62843389E+03  d E =0.398285E-04  mag=    20.0000
       N       E                     dE             d eps       ncg     rms          rms(c)
DAV:   1    -0.628433865580E+03    0.24799E-04   -0.64553E-04 19440   0.518E-02    0.189E-02
DAV:   2    -0.628433863634E+03    0.19468E-05   -0.26519E-05 12012   0.157E-02
  91 F= -.62843386E+03 E0= -.62843386E+03  d E =0.238989E-04  mag=    20.0000
       N       E                     dE             d eps       ncg     rms          rms(c)
DAV:   1    -0.628434117257E+03   -0.25168E-03   -0.76197E-02 21576   0.545E-01    0.101E-01
DAV:   2    -0.628434179864E+03   -0.62607E-04   -0.24352E-03 27072   0.108E-01    0.759E-02
DAV:   3    -0.628434161202E+03    0.18662E-04   -0.15626E-04 15072   0.381E-02
  92 F= -.62843416E+03 E0= -.62843416E+03  d E =-.297569E-03  mag=    20.0000
       N       E                     dE             d eps       ncg     rms          rms(c)
DAV:   1    -0.628434250438E+03   -0.70574E-04   -0.22267E-02 21552   0.291E-01    0.449E-02
DAV:   2    -0.628434296986E+03   -0.46548E-04   -0.61512E-04 23940   0.549E-02
  93 F= -.62843430E+03 E0= -.62843430E+03  d E =-.135784E-03  mag=    20.0000
       N       E                     dE             d eps       ncg     rms          rms(c)
DAV:   1    -0.628434389437E+03   -0.13900E-03   -0.15304E-02 21552   0.241E-01    0.389E-02
DAV:   2    -0.628434417547E+03   -0.28110E-04   -0.37748E-04 18480   0.422E-02
  94 F= -.62843442E+03 E0= -.62843442E+03  d E =-.120561E-03  mag=    20.0000
       N       E                     dE             d eps       ncg     rms          rms(c)
DAV:   1    -0.628434357791E+03    0.31645E-04   -0.40448E-03 21576   0.128E-01    0.362E-02
DAV:   2    -0.628434355080E+03    0.27113E-05   -0.16359E-04 13824   0.365E-02
  95 F= -.62843436E+03 E0= -.62843436E+03  d E =0.624669E-04  mag=    20.0000
       N       E                     dE             d eps       ncg     rms          rms(c)
DAV:   1    -0.628434399248E+03   -0.41457E-04   -0.41789E-03 20508   0.127E-01    0.314E-02
DAV:   2    -0.628434403347E+03   -0.40991E-05   -0.13030E-04 13104   0.307E-02
  96 F= -.62843440E+03 E0= -.62843440E+03  d E =-.482674E-04  mag=    20.0000
       N       E                     dE             d eps       ncg     rms          rms(c)
DAV:   1    -0.628434679536E+03   -0.28029E-03   -0.36324E-02 21684   0.383E-01    0.978E-02
DAV:   2    -0.628434625611E+03    0.53925E-04   -0.15384E-03 28956   0.894E-02    0.670E-02
DAV:   3    -0.628434601476E+03    0.24135E-04   -0.14867E-04 15456   0.403E-02
  97 F= -.62843460E+03 E0= -.62843460E+03  d E =-.198129E-03  mag=    20.0000
       N       E                     dE             d eps       ncg     rms          rms(c)
DAV:   1    -0.628434734796E+03   -0.10918E-03   -0.33006E-02 21576   0.361E-01    0.754E-02
DAV:   2    -0.628434742889E+03   -0.80936E-05   -0.10369E-03 23988   0.697E-02    0.526E-02
DAV:   3    -0.628434731137E+03    0.11752E-04   -0.65717E-05 12948   0.259E-02
  98 F= -.62843473E+03 E0= -.62843473E+03  d E =-.129661E-03  mag=    20.0000
       N       E                     dE             d eps       ncg     rms          rms(c)
DAV:   1    -0.628434763927E+03   -0.21038E-04   -0.36002E-03 21576   0.117E-01    0.365E-02
DAV:   2    -0.628434758382E+03    0.55451E-05   -0.20738E-04 15660   0.379E-02
  99 F= -.62843476E+03 E0= -.62843476E+03  d E =-.272447E-04  mag=    20.0000
       N       E                     dE             d eps       ncg     rms          rms(c)
DAV:   1    -0.628434834931E+03   -0.71003E-04   -0.44164E-02 21528   0.408E-01    0.709E-02
DAV:   2    -0.628434914220E+03   -0.79289E-04   -0.12099E-03 25920   0.768E-02    0.625E-02
DAV:   3    -0.628434907916E+03    0.63033E-05   -0.95595E-05 13032   0.245E-02
 100 F= -.62843491E+03 E0= -.62843491E+03  d E =-.149534E-03  mag=    20.0000
       N       E                     dE             d eps       ncg     rms          rms(c)
DAV:   1    -0.628435194261E+03   -0.28004E-03   -0.51783E-02 21624   0.462E-01    0.129E-01
DAV:   2    -0.628435088816E+03    0.10545E-03   -0.24261E-03 29448   0.114E-01    0.967E-02
DAV:   3    -0.628435042137E+03    0.46678E-04   -0.25164E-04 18072   0.481E-02
 101 F= -.62843504E+03 E0= -.62843504E+03  d E =-.134221E-03  mag=    20.0000
       N       E                     dE             d eps       ncg     rms          rms(c)
DAV:   1    -0.628435684783E+03   -0.59597E-03   -0.32805E-02 21612   0.386E-01    0.191E-01
DAV:   2    -0.628435242879E+03    0.44190E-03   -0.35644E-03 31536   0.150E-01    0.145E-01
DAV:   3    -0.628435149672E+03    0.93207E-04   -0.69907E-04 24420   0.720E-02
 102 F= -.62843515E+03 E0= -.62843515E+03  d E =-.107534E-03  mag=    20.0000
       N       E                     dE             d eps       ncg     rms          rms(c)
DAV:   1    -0.628435259788E+03   -0.16909E-04   -0.10133E-02 21552   0.198E-01    0.495E-02
DAV:   2    -0.628435275640E+03   -0.15853E-04   -0.59750E-04 24360   0.699E-02
 103 F= -.62843528E+03 E0= -.62843528E+03  d E =-.125969E-03  mag=    20.0000
       N       E                     dE             d eps       ncg     rms          rms(c)
DAV:   1    -0.628435362950E+03   -0.10316E-03   -0.19235E-02 21600   0.275E-01    0.498E-02
DAV:   2    -0.628435392798E+03   -0.29849E-04   -0.62761E-04 21708   0.541E-02
 104 F= -.62843539E+03 E0= -.62843539E+03  d E =-.117158E-03  mag=    20.0000
       N       E                     dE             d eps       ncg     rms          rms(c)
DAV:   1    -0.628435395031E+03   -0.32082E-04   -0.27895E-02 21672   0.348E-01    0.143E-01
DAV:   2    -0.628435201743E+03    0.19329E-03   -0.22126E-03 31248   0.117E-01    0.117E-01
DAV:   3    -0.628435132208E+03    0.69535E-04   -0.34278E-04 19812   0.549E-02
 105 F= -.62843513E+03 E0= -.62843513E+03  d E =0.260590E-03  mag=    20.0000
       N       E                     dE             d eps       ncg     rms          rms(c)
DAV:   1    -0.628436381184E+03   -0.11794E-02   -0.17158E-01 21576   0.847E-01    0.287E-01
DAV:   2    -0.628435678593E+03    0.70259E-03   -0.91538E-03 30840   0.224E-01    0.190E-01
DAV:   3    -0.628435519380E+03    0.15921E-03   -0.15586E-03 29748   0.111E-01    0.891E-02
DAV:   4    -0.628435468090E+03    0.51290E-04   -0.17862E-04 14364   0.381E-02
 106 F= -.62843547E+03 E0= -.62843547E+03  d E =-.335882E-03  mag=    20.0000
       N       E                     dE             d eps       ncg     rms          rms(c)
DAV:   1    -0.628435671288E+03   -0.15191E-03   -0.93192E-02 21576   0.595E-01    0.154E-01
DAV:   2    -0.628435615497E+03    0.55791E-04   -0.44661E-03 28812   0.179E-01    0.165E-01
DAV:   3    -0.628435580856E+03    0.34641E-04   -0.81871E-04 25716   0.638E-02
 107 F= -.62843558E+03 E0= -.62843558E+03  d E =-.112766E-03  mag=    20.0000
       N       E                     dE             d eps       ncg     rms          rms(c)
DAV:   1    -0.628435753661E+03   -0.13816E-03   -0.29426E-02 21528   0.333E-01    0.969E-02
DAV:   2    -0.628435875818E+03   -0.12216E-03   -0.25223E-03 29856   0.114E-01    0.114E-01
DAV:   3    -0.628435803169E+03    0.72650E-04   -0.19392E-04 16320   0.415E-02
 108 F= -.62843580E+03 E0= -.62843580E+03  d E =-.222313E-03  mag=    20.0000
       N       E                     dE             d eps       ncg     rms          rms(c)
DAV:   1    -0.628435978329E+03   -0.10251E-03   -0.45047E-02 21528   0.422E-01    0.113E-01
DAV:   2    -0.628435887278E+03    0.91052E-04   -0.18046E-03 29460   0.128E-01    0.104E-01
DAV:   3    -0.628435877732E+03    0.95463E-05   -0.44620E-04 22104   0.478E-02
 109 F= -.62843588E+03 E0= -.62843588E+03  d E =-.745630E-04  mag=    20.0000
       N       E                     dE             d eps       ncg     rms          rms(c)
DAV:   1    -0.628436034161E+03   -0.14688E-03   -0.19291E-02 21624   0.275E-01    0.671E-02
DAV:   2    -0.628436061581E+03   -0.27420E-04   -0.12494E-03 29808   0.955E-02    0.861E-02
DAV:   3    -0.628436038944E+03    0.22636E-04   -0.12313E-04 12528   0.300E-02
 110 F= -.62843604E+03 E0= -.62843604E+03  d E =-.161213E-03  mag=    20.0000
       N       E                     dE             d eps       ncg     rms          rms(c)
DAV:   1    -0.628436035533E+03    0.26048E-04   -0.10590E-01 21528   0.633E-01    0.907E-02
DAV:   2    -0.628436212134E+03   -0.17660E-03   -0.26915E-03 25920   0.113E-01    0.636E-02
DAV:   3    -0.628436203319E+03    0.88144E-05   -0.18049E-04 14400   0.344E-02
 111 F= -.62843620E+03 E0= -.62843620E+03  d E =-.164375E-03  mag=    20.0000
       N       E                     dE             d eps       ncg     rms          rms(c)
DAV:   1    -0.628436400910E+03   -0.18878E-03   -0.11560E-02 21744   0.222E-01    0.845E-02
DAV:   2    -0.628436309574E+03    0.91336E-04   -0.68981E-04 24744   0.786E-02
 112 F= -.62843631E+03 E0= -.62843631E+03  d E =-.106255E-03  mag=    20.0000
       N       E                     dE             d eps       ncg     rms          rms(c)
DAV:   1    -0.628436220743E+03    0.18017E-03   -0.13990E-02 21816   0.242E-01    0.705E-02
DAV:   2    -0.628436186253E+03    0.34491E-04   -0.68934E-04 24408   0.652E-02
 113 F= -.62843619E+03 E0= -.62843619E+03  d E =0.123321E-03  mag=    20.0000
       N       E                     dE             d eps       ncg     rms          rms(c)
DAV:   1    -0.628436308811E+03   -0.88068E-04   -0.49718E-02 21528   0.439E-01    0.668E-02
DAV:   2    -0.628436390013E+03   -0.81202E-04   -0.15121E-03 26592   0.896E-02    0.585E-02
DAV:   3    -0.628436380721E+03    0.92920E-05   -0.11596E-04 13680   0.301E-02
 114 F= -.62843638E+03 E0= -.62843638E+03  d E =-.194468E-03  mag=    20.0000
       N       E                     dE             d eps       ncg     rms          rms(c)
DAV:   1    -0.628436541316E+03   -0.15130E-03   -0.24526E-02 21576   0.314E-01    0.809E-02
DAV:   2    -0.628436511726E+03    0.29590E-04   -0.98225E-04 24780   0.718E-02
 115 F= -.62843651E+03 E0= -.62843651E+03  d E =-.131006E-03  mag=    20.0000
       N       E                     dE             d eps       ncg     rms          rms(c)
DAV:   1    -0.628436631796E+03   -0.90480E-04   -0.80770E-02 21528   0.556E-01    0.113E-01
DAV:   2    -0.628436711824E+03   -0.80029E-04   -0.25631E-03 27012   0.109E-01    0.823E-02
DAV:   3    -0.628436680363E+03    0.31461E-04   -0.15708E-04 15336   0.414E-02
 116 F= -.62843668E+03 E0= -.62843668E+03  d E =-.168637E-03  mag=    20.0000
       N       E                     dE             d eps       ncg     rms          rms(c)
DAV:   1    -0.628436519860E+03    0.19196E-03   -0.31250E-02 21528   0.348E-01    0.575E-02
DAV:   2    -0.628436573074E+03   -0.53214E-04   -0.92706E-04 23112   0.628E-02
 117 F= -.62843657E+03 E0= -.62843657E+03  d E =0.107289E-03  mag=    20.0000
       N       E                     dE             d eps       ncg     rms          rms(c)
DAV:   1    -0.628436584230E+03   -0.64370E-04   -0.55097E-04 19116   0.485E-02    0.264E-02
DAV:   2    -0.628436579214E+03    0.50151E-05   -0.33454E-05 11352   0.183E-02
 118 F= -.62843658E+03 E0= -.62843658E+03  d E =-.614075E-05  mag=    20.0000
       N       E                     dE             d eps       ncg     rms          rms(c)
DAV:   1    -0.628437288682E+03   -0.70445E-03   -0.65754E-02 21624   0.546E-01    0.282E-01
DAV:   2    -0.628436432990E+03    0.85569E-03   -0.76977E-03 31464   0.221E-01    0.239E-01
DAV:   3    -0.628436183142E+03    0.24985E-03   -0.14863E-03 29904   0.100E-01    0.112E-01
DAV:   4    -0.628436140916E+03    0.42226E-04   -0.21460E-04 15120   0.373E-02
 119 F= -.62843614E+03 E0= -.62843614E+03  d E =0.438298E-03  mag=    20.0000
       N       E                     dE             d eps       ncg     rms          rms(c)
DAV:   1    -0.628437293820E+03   -0.11107E-02   -0.74404E-02 21576   0.564E-01    0.207E-01
DAV:   2    -0.628436843901E+03    0.44992E-03   -0.51630E-03 31464   0.179E-01    0.168E-01
DAV:   3    -0.628436714796E+03    0.12911E-03   -0.87988E-04 27180   0.783E-02    0.715E-02
DAV:   4    -0.628436689159E+03    0.25637E-04   -0.91461E-05 12816   0.259E-02
 120 F= -.62843669E+03 E0= -.62843669E+03  d E =-.548243E-03  mag=    20.0000
       N       E                     dE             d eps       ncg     rms          rms(c)
DAV:   1    -0.628436805715E+03   -0.90919E-04   -0.47273E-02 21528   0.429E-01    0.886E-02
DAV:   2    -0.628436846392E+03   -0.40677E-04   -0.15741E-03 27924   0.900E-02    0.833E-02
DAV:   3    -0.628436824728E+03    0.21663E-04   -0.12288E-04 14448   0.311E-02
 121 F= -.62843682E+03 E0= -.62843682E+03  d E =-.135569E-03  mag=    20.0000
       N       E                     dE             d eps       ncg     rms          rms(c)
DAV:   1    -0.628436847957E+03   -0.15654E-05   -0.10302E-03 19392   0.646E-02    0.262E-02
DAV:   2    -0.628436848948E+03   -0.99060E-06   -0.55849E-05 11688   0.213E-02
 122 F= -.62843685E+03 E0= -.62843685E+03  d E =-.242194E-04  mag=    20.0000
       N       E                     dE             d eps       ncg     rms          rms(c)
DAV:   1    -0.628437031193E+03   -0.18324E-03   -0.12156E-02 21684   0.235E-01    0.101E-01
DAV:   2    -0.628436910560E+03    0.12063E-03   -0.90653E-04 26004   0.724E-02    0.705E-02
DAV:   3    -0.628436887809E+03    0.22752E-04   -0.13796E-04 15456   0.387E-02
 123 F= -.62843689E+03 E0= -.62843689E+03  d E =-.388611E-04  mag=    20.0000
       N       E                     dE             d eps       ncg     rms          rms(c)
DAV:   1    -0.628436936393E+03   -0.25833E-04   -0.28407E-02 21528   0.331E-01    0.582E-02
DAV:   2    -0.628436988859E+03   -0.52465E-04   -0.10041E-03 25896   0.716E-02    0.611E-02
DAV:   3    -0.628436978090E+03    0.10768E-04   -0.63712E-05 12120   0.226E-02
 124 F= -.62843698E+03 E0= -.62843698E+03  d E =-.902818E-04  mag=    20.0000
       N       E                     dE             d eps       ncg     rms          rms(c)
DAV:   1    -0.628437130385E+03   -0.14153E-03   -0.55896E-03 21624   0.161E-01    0.845E-02
DAV:   2    -0.628437026903E+03    0.10348E-03   -0.58471E-04 23220   0.601E-02    0.603E-02
DAV:   3    -0.628437014925E+03    0.11978E-04   -0.11026E-04 14160   0.334E-02
 125 F= -.62843701E+03 E0= -.62843701E+03  d E =-.368342E-04  mag=    20.0000
       N       E                     dE             d eps       ncg     rms          rms(c)
DAV:   1    -0.628437213803E+03   -0.18690E-03   -0.59637E-02 21528   0.487E-01    0.155E-01
DAV:   2    -0.628437133869E+03    0.79934E-04   -0.41176E-03 29988   0.167E-01    0.175E-01
DAV:   3    -0.628437036677E+03    0.97192E-04   -0.63312E-04 24444   0.594E-02
 126 F= -.62843704E+03 E0= -.62843704E+03  d E =-.217522E-04  mag=    20.0000
       N       E                     dE             d eps       ncg     rms          rms(c)
DAV:   1    -0.628437240531E+03   -0.10666E-03   -0.15735E-02 21624   0.245E-01    0.809E-02
DAV:   2    -0.628437294993E+03   -0.54461E-04   -0.20194E-03 30372   0.109E-01    0.974E-02
DAV:   3    -0.628437217228E+03    0.77764E-04   -0.19500E-04 16788   0.399E-02
 127 F= -.62843722E+03 E0= -.62843722E+03  d E =-.180551E-03  mag=    20.0000
       N       E                     dE             d eps       ncg     rms          rms(c)
DAV:   1    -0.628437264501E+03    0.30492E-04   -0.39638E-02 21528   0.389E-01    0.548E-02
DAV:   2    -0.628437342039E+03   -0.77538E-04   -0.10971E-03 25512   0.763E-02    0.512E-02
DAV:   3    -0.628437339178E+03    0.28615E-05   -0.86863E-05 12960   0.246E-02
 128 F= -.62843734E+03 E0= -.62843734E+03  d E =-.121950E-03  mag=    20.0000
       N       E                     dE             d eps       ncg     rms          rms(c)
DAV:   1    -0.628437361466E+03   -0.19427E-04   -0.10382E-03 21624   0.682E-02    0.413E-02
DAV:   2    -0.628437350214E+03    0.11252E-04   -0.10833E-04 12936   0.312E-02
 129 F= -.62843735E+03 E0= -.62843735E+03  d E =-.110365E-04  mag=    20.0000
       N       E                     dE             d eps       ncg     rms          rms(c)
DAV:   1    -0.628437359655E+03    0.18108E-05   -0.13619E-04 13260   0.280E-02    0.185E-02
DAV:   2    -0.628437360096E+03   -0.44062E-06   -0.21604E-05 11616   0.169E-02
 130 F= -.62843736E+03 E0= -.62843736E+03  d E =-.988149E-05  mag=    20.0000
       N       E                     dE             d eps       ncg     rms          rms(c)
DAV:   1    -0.628437391428E+03   -0.31773E-04   -0.21427E-02 21528   0.281E-01    0.526E-02
DAV:   2    -0.628437438327E+03   -0.46899E-04   -0.91766E-04 27060   0.805E-02
 131 F= -.62843744E+03 E0= -.62843744E+03  d E =-.782316E-04  mag=    20.0000
       N       E                     dE             d eps       ncg     rms          rms(c)
DAV:   1    -0.628437508012E+03   -0.11658E-03   -0.92127E-03 21720   0.187E-01    0.585E-02
DAV:   2    -0.628437516000E+03   -0.79877E-05   -0.70811E-04 25932   0.617E-02
 132 F= -.62843752E+03 E0= -.62843752E+03  d E =-.776722E-04  mag=    20.0000
       N       E                     dE             d eps       ncg     rms          rms(c)
DAV:   1    -0.628437544748E+03   -0.36736E-04   -0.23056E-02 21528   0.299E-01    0.513E-02
DAV:   2    -0.628437590302E+03   -0.45554E-04   -0.78388E-04 24264   0.701E-02
 133 F= -.62843759E+03 E0= -.62843759E+03  d E =-.743023E-04  mag=    20.0000
       N       E                     dE             d eps       ncg     rms          rms(c)
DAV:   1    -0.628437642399E+03   -0.97650E-04   -0.99141E-03 21528   0.193E-01    0.395E-02
DAV:   2    -0.628437664090E+03   -0.21692E-04   -0.50311E-04 22728   0.557E-02
 134 F= -.62843766E+03 E0= -.62843766E+03  d E =-.737885E-04  mag=    20.0000
       N       E                     dE             d eps       ncg     rms          rms(c)
DAV:   1    -0.628437687342E+03   -0.44944E-04   -0.12874E-03 19824   0.722E-02    0.247E-02
DAV:   2    -0.628437682756E+03    0.45864E-05   -0.92222E-05 11964   0.267E-02
 135 F= -.62843768E+03 E0= -.62843768E+03  d E =-.186658E-04  mag=    20.0000
       N       E                     dE             d eps       ncg     rms          rms(c)
DAV:   1    -0.628437579815E+03    0.10753E-03   -0.10969E-02 21528   0.205E-01    0.316E-02
DAV:   2    -0.628437599523E+03   -0.19707E-04   -0.28929E-04 15024   0.398E-02
 136 F= -.62843760E+03 E0= -.62843760E+03  d E =0.832334E-04  mag=    20.0000
       N       E                     dE             d eps       ncg     rms          rms(c)
DAV:   1    -0.628437686838E+03   -0.10702E-03   -0.46393E-02 21528   0.420E-01    0.530E-02
DAV:   2    -0.628437772575E+03   -0.85737E-04   -0.13364E-03 24660   0.801E-02    0.467E-02
DAV:   3    -0.628437765349E+03    0.72263E-05   -0.62918E-05 12120   0.237E-02
 137 F= -.62843777E+03 E0= -.62843777E+03  d E =-.165826E-03  mag=    20.0000
       N       E                     dE             d eps       ncg     rms          rms(c)
DAV:   1    -0.628437870872E+03   -0.98297E-04   -0.36150E-02 21624   0.377E-01    0.747E-02
DAV:   2    -0.628437879488E+03   -0.86163E-05   -0.11590E-03 25224   0.741E-02    0.530E-02
DAV:   3    -0.628437868998E+03    0.10490E-04   -0.69840E-05 12552   0.256E-02
 138 F= -.62843787E+03 E0= -.62843787E+03  d E =-.103649E-03  mag=    20.0000
       N       E                     dE             d eps       ncg     rms          rms(c)
DAV:   1    -0.628437900115E+03   -0.20627E-04   -0.16807E-01 21504   0.799E-01    0.121E-01
DAV:   2    -0.628438136686E+03   -0.23657E-03   -0.47778E-03 25824   0.142E-01    0.873E-02
DAV:   3    -0.628438101912E+03    0.34773E-04   -0.27363E-04 18408   0.489E-02
 139 F= -.62843810E+03 E0= -.62843810E+03  d E =-.232914E-03  mag=    20.0000
       N       E                     dE             d eps       ncg     rms          rms(c)
DAV:   1    -0.628437765887E+03    0.37080E-03   -0.17708E-01 21600   0.830E-01    0.147E-01
DAV:   2    -0.628437930880E+03   -0.16499E-03   -0.56667E-03 25764   0.159E-01    0.894E-02
DAV:   3    -0.628437896244E+03    0.34636E-04   -0.45396E-04 21648   0.635E-02
 140 F= -.62843790E+03 E0= -.62843790E+03  d E =0.205669E-03  mag=    20.0000
       N       E                     dE             d eps       ncg     rms          rms(c)
DAV:   1    -0.628438393277E+03   -0.46240E-03   -0.85889E-02 21672   0.616E-01    0.255E-01
DAV:   2    -0.628437676693E+03    0.71658E-03   -0.56412E-03 30972   0.174E-01    0.172E-01
DAV:   3    -0.628437532382E+03    0.14431E-03   -0.10273E-03 27792   0.935E-02    0.870E-02
DAV:   4    -0.628437491108E+03    0.41275E-04   -0.16521E-04 13860   0.367E-02
 141 F= -.62843749E+03 E0= -.62843749E+03  d E =0.405136E-03  mag=    20.0000
       N       E                     dE             d eps       ncg     rms          rms(c)
DAV:   1    -0.628438146932E+03   -0.61455E-03   -0.11393E-01 21600   0.677E-01    0.162E-01
DAV:   2    -0.628438028086E+03    0.11885E-03   -0.44867E-03 29064   0.152E-01    0.111E-01
DAV:   3    -0.628437966166E+03    0.61920E-04   -0.50039E-04 21828   0.674E-02
 142 F= -.62843797E+03 E0= -.62843797E+03  d E =-.475058E-03  mag=    20.0000
       N       E                     dE             d eps       ncg     rms          rms(c)
DAV:   1    -0.628439437690E+03   -0.14096E-02   -0.24574E-01 21600   0.102E+00    0.347E-01
DAV:   2    -0.628438223711E+03    0.12140E-02   -0.12094E-02 30264   0.251E-01    0.229E-01
DAV:   3    -0.628437988653E+03    0.23506E-03   -0.18298E-03 29592   0.126E-01    0.120E-01
DAV:   4    -0.628437905370E+03    0.83284E-04   -0.48248E-04 21936   0.542E-02
 143 F= -.62843791E+03 E0= -.62843791E+03  d E =0.607965E-04  mag=    20.0000
       N       E                     dE             d eps       ncg     rms          rms(c)
DAV:   1    -0.628438604142E+03   -0.61549E-03   -0.58000E-02 21516   0.505E-01    0.186E-01
DAV:   2    -0.628438199568E+03    0.40457E-03   -0.35131E-03 30288   0.138E-01    0.121E-01
DAV:   3    -0.628438137285E+03    0.62283E-04   -0.50586E-04 22848   0.680E-02
 144 F= -.62843814E+03 E0= -.62843814E+03  d E =-.231915E-03  mag=    20.0000
       N       E                     dE             d eps       ncg     rms          rms(c)
DAV:   1    -0.628439250041E+03   -0.10505E-02   -0.63114E-02 21552   0.550E-01    0.313E-01
DAV:   2    -0.628438215754E+03    0.10343E-02   -0.92837E-03 31284   0.236E-01    0.265E-01
DAV:   3    -0.628437902691E+03    0.31306E-03   -0.17214E-03 29808   0.110E-01    0.124E-01
DAV:   4    -0.628437862205E+03    0.40487E-04   -0.19770E-04 14100   0.355E-02
 145 F= -.62843786E+03 E0= -.62843786E+03  d E =0.275080E-03  mag=    20.0000
       N       E                     dE             d eps       ncg     rms          rms(c)
DAV:   1    -0.628438379231E+03   -0.47654E-03   -0.30175E-02 21528   0.346E-01    0.129E-01
DAV:   2    -0.628438282964E+03    0.96267E-04   -0.29631E-03 30264   0.144E-01    0.152E-01
DAV:   3    -0.628438200801E+03    0.82163E-04   -0.42150E-04 21708   0.517E-02
 146 F= -.62843820E+03 E0= -.62843820E+03  d E =-.338597E-03  mag=    20.0000
       N       E                     dE             d eps       ncg     rms          rms(c)
DAV:   1    -0.628438954590E+03   -0.67163E-03   -0.83627E-02 21600   0.597E-01    0.230E-01
DAV:   2    -0.628438397728E+03    0.55686E-03   -0.48237E-03 28860   0.155E-01    0.153E-01
DAV:   3    -0.628438292918E+03    0.10481E-03   -0.57782E-04 24216   0.732E-02    0.791E-02
DAV:   4    -0.628438267381E+03    0.25538E-04   -0.35248E-04 20256   0.423E-02
 147 F= -.62843827E+03 E0= -.62843827E+03  d E =-.665795E-04  mag=    20.0000
       N       E                     dE             d eps       ncg     rms          rms(c)
DAV:   1    -0.628438518012E+03   -0.22509E-03   -0.17626E-02 21672   0.265E-01    0.867E-02
DAV:   2    -0.628438436082E+03    0.81930E-04   -0.88458E-04 24648   0.774E-02
 148 F= -.62843844E+03 E0= -.62843844E+03  d E =-.168701E-03  mag=    20.0000
       N       E                     dE             d eps       ncg     rms          rms(c)
DAV:   1    -0.628438428731E+03    0.89281E-04   -0.13830E-04 12732   0.302E-02    0.401E-02
DAV:   2    -0.628438423129E+03    0.56023E-05   -0.54338E-05 13176   0.208E-02
 149 F= -.62843842E+03 E0= -.62843842E+03  d E =0.129530E-04  mag=    20.0000
       N       E                     dE             d eps       ncg     rms          rms(c)
DAV:   1    -0.628438465813E+03   -0.37082E-04   -0.25563E-02 21528   0.309E-01    0.357E-02
DAV:   2    -0.628438527720E+03   -0.61907E-04   -0.67591E-04 23832   0.531E-02
 150 F= -.62843853E+03 E0= -.62843853E+03  d E =-.104591E-03  mag=    20.0000
       N       E                     dE             d eps       ncg     rms          rms(c)
DAV:   1    -0.628438572140E+03   -0.10633E-03   -0.13191E-02 21528   0.225E-01    0.344E-02
DAV:   2    -0.628438598657E+03   -0.26517E-04   -0.35989E-04 17076   0.429E-02
 151 F= -.62843860E+03 E0= -.62843860E+03  d E =-.709369E-04  mag=    20.0000
       N       E                     dE             d eps       ncg     rms          rms(c)
DAV:   1    -0.628438642937E+03   -0.70798E-04   -0.80491E-03 21432   0.174E-01    0.291E-02
DAV:   2    -0.628438661264E+03   -0.18327E-04   -0.18362E-04 13596   0.312E-02
 152 F= -.62843866E+03 E0= -.62843866E+03  d E =-.626072E-04  mag=    20.0000
       N       E                     dE             d eps       ncg     rms          rms(c)
DAV:   1    -0.628438694531E+03   -0.51594E-04   -0.28632E-02 21528   0.328E-01    0.489E-02
DAV:   2    -0.628438773360E+03   -0.78829E-04   -0.72685E-04 24000   0.566E-02
 153 F= -.62843877E+03 E0= -.62843877E+03  d E =-.112096E-03  mag=    20.0000
