       N       E                     dE             d eps       ncg     rms          rms(c)
DAV:   1     0.550136835719E+04    0.55014E+04   -0.19761E+05 10752   0.125E+03
DAV:   2     0.489706646501E+03   -0.50117E+04   -0.46228E+04 11088   0.348E+02
DAV:   3    -0.723792840269E+03   -0.12135E+04   -0.11765E+04 12744   0.178E+02
DAV:   4    -0.825330272452E+03   -0.10154E+03   -0.10011E+03 16056   0.587E+01
DAV:   5    -0.829103865378E+03   -0.37736E+01   -0.37315E+01 17016   0.126E+01
DAV:   6    -0.829268772132E+03   -0.16491E+00   -0.16376E+00 17040   0.239E+00
DAV:   7    -0.829277229301E+03   -0.84572E-02   -0.84289E-02 17064   0.541E-01
DAV:   8    -0.829277775713E+03   -0.54641E-03   -0.54545E-03 14076   0.122E-01
DAV:   9    -0.829277814085E+03   -0.38373E-04   -0.38305E-04  9996   0.367E-02
DAV:  10    -0.829277818304E+03   -0.42183E-05   -0.41990E-05  8904   0.172E-02
DAV:  11    -0.829277819896E+03   -0.15929E-05   -0.15845E-05  8256   0.118E-02
DAV:  12    -0.829277820813E+03   -0.91703E-06   -0.91241E-06  8064   0.887E-03    0.114E+02
DAV:  13    -0.610153574702E+03    0.21912E+03   -0.12787E+03 15876   0.807E+01    0.732E+01
DAV:  14    -0.630621621465E+03   -0.20468E+02   -0.36567E+02 16848   0.429E+01    0.476E+01
DAV:  15    -0.626530617289E+03    0.40910E+01   -0.44762E+01 14844   0.146E+01    0.284E+01
DAV:  16    -0.629703761170E+03   -0.31731E+01   -0.38358E+01 16008   0.186E+01    0.193E+01
DAV:  17    -0.626886501167E+03    0.28173E+01   -0.27782E+01 16272   0.137E+01    0.158E+01
DAV:  18    -0.626561093661E+03    0.32541E+00   -0.43182E+00 15756   0.562E+00    0.622E+00
DAV:  19    -0.626350522197E+03    0.21057E+00   -0.17602E+00 16032   0.330E+00    0.272E+00
DAV:  20    -0.626349037634E+03    0.14846E-02   -0.48870E-01 15960   0.221E+00    0.113E+00
DAV:  21    -0.626359001531E+03   -0.99639E-02   -0.14223E-01 15828   0.103E+00    0.102E+00
DAV:  22    -0.626360843475E+03   -0.18419E-02   -0.30684E-02 14544   0.464E-01    0.326E-01
DAV:  23    -0.626361590024E+03   -0.74655E-03   -0.79738E-03 15540   0.230E-01    0.256E-01
DAV:  24    -0.626361868061E+03   -0.27804E-03   -0.44960E-03 15072   0.154E-01    0.169E-01
DAV:  25    -0.626361695395E+03    0.17267E-03   -0.11770E-03 14316   0.981E-02    0.734E-02
DAV:  26    -0.626361723874E+03   -0.28480E-04   -0.48512E-04 10932   0.516E-02
   1 F= -.62636172E+03 E0= -.62636161E+03  d E =-.626362E+03  mag=    19.9642
       N       E                     dE             d eps       ncg     rms          rms(c)
DAV:   1    -0.627807134110E+03   -0.14454E+01   -0.56058E+02 10752   0.464E+01    0.133E+01
DAV:   2    -0.627560157555E+03    0.24698E+00   -0.31388E+01 15912   0.197E+01    0.140E+01
DAV:   3    -0.627598220451E+03   -0.38063E-01   -0.80695E+00 14868   0.601E+00    0.806E+00
DAV:   4    -0.627256244393E+03    0.34198E+00   -0.17796E+00 16428   0.333E+00    0.592E+00
DAV:   5    -0.627188373754E+03    0.67871E-01   -0.80227E-01 15132   0.282E+00    0.343E+00
DAV:   6    -0.627150187107E+03    0.38187E-01   -0.49684E-01 15660   0.177E+00    0.182E+00
DAV:   7    -0.627146099350E+03    0.40878E-02   -0.28499E-01 16188   0.154E+00    0.873E-01
DAV:   8    -0.627146959072E+03   -0.85972E-03   -0.44956E-02 14364   0.529E-01    0.379E-01
DAV:   9    -0.627146718032E+03    0.24104E-03   -0.70539E-03 15792   0.266E-01    0.350E-01
DAV:  10    -0.627146773727E+03   -0.55695E-04   -0.26117E-03 14460   0.156E-01    0.101E-01
DAV:  11    -0.627146745482E+03    0.28245E-04   -0.13374E-03 14160   0.868E-02    0.811E-02
DAV:  12    -0.627146742673E+03    0.28085E-05   -0.25151E-04  7872   0.398E-02
   2 F= -.62714674E+03 E0= -.62714674E+03  d E =-.785019E+00  mag=    19.9776
       N       E                     dE             d eps       ncg     rms          rms(c)
DAV:   1    -0.628681480623E+03   -0.15347E+01   -0.13390E+02 10752   0.231E+01    0.838E+00
DAV:   2    -0.628324274806E+03    0.35721E+00   -0.99790E+00 14712   0.958E+00    0.104E+01
DAV:   3    -0.628178381278E+03    0.14589E+00   -0.23495E+00 15540   0.309E+00    0.613E+00
DAV:   4    -0.628121295133E+03    0.57086E-01   -0.80991E-01 15888   0.224E+00    0.479E+00
DAV:   5    -0.628076420452E+03    0.44875E-01   -0.32341E-01 15120   0.186E+00    0.229E+00
DAV:   6    -0.628056698851E+03    0.19722E-01   -0.30943E-01 15756   0.115E+00    0.870E-01
DAV:   7    -0.628055565843E+03    0.11330E-02   -0.82345E-02 15672   0.641E-01    0.471E-01
DAV:   8    -0.628054191972E+03    0.13739E-02   -0.12292E-02 15036   0.334E-01    0.232E-01
DAV:   9    -0.628054288127E+03   -0.96155E-04   -0.55054E-03 15516   0.207E-01    0.224E-01
DAV:  10    -0.628054284259E+03    0.38674E-05   -0.11922E-03 13776   0.855E-02    0.120E-01
DAV:  11    -0.628054262420E+03    0.21839E-04   -0.69256E-04 11952   0.577E-02
   3 F= -.62805426E+03 E0= -.62805426E+03  d E =-.907520E+00  mag=    19.9853
       N       E                     dE             d eps       ncg     rms          rms(c)
DAV:   1    -0.628081406057E+03   -0.27122E-01   -0.60491E+01 10752   0.153E+01    0.341E+00
DAV:   2    -0.628247578221E+03   -0.16617E+00   -0.30668E+00 15012   0.470E+00    0.457E+00
DAV:   3    -0.628221347867E+03    0.26230E-01   -0.36798E-01 13836   0.147E+00    0.308E+00
DAV:   4    -0.628193965291E+03    0.27383E-01   -0.90781E-02 14628   0.587E-01    0.234E+00
DAV:   5    -0.628177448222E+03    0.16517E-01   -0.84504E-02 14664   0.723E-01    0.104E+00
DAV:   6    -0.628174493025E+03    0.29552E-02   -0.67240E-02 15864   0.670E-01    0.472E-01
DAV:   7    -0.628173831741E+03    0.66128E-03   -0.31633E-02 13980   0.390E-01    0.386E-01
DAV:   8    -0.628173844798E+03   -0.13057E-04   -0.30068E-03 15252   0.160E-01    0.196E-01
DAV:   9    -0.628173790048E+03    0.54750E-04   -0.19636E-03 15660   0.120E-01    0.117E-01
DAV:  10    -0.628173677274E+03    0.11277E-03   -0.62322E-04 12396   0.678E-02    0.726E-02
DAV:  11    -0.628173633824E+03    0.43449E-04   -0.32046E-04  8352   0.431E-02
   4 F= -.62817363E+03 E0= -.62817363E+03  d E =-.119371E+00  mag=    19.9904
       N       E                     dE             d eps       ncg     rms          rms(c)
DAV:   1    -0.628303465041E+03   -0.12979E+00   -0.37803E+01 10752   0.117E+01    0.296E+00
DAV:   2    -0.628268648993E+03    0.34816E-01   -0.18248E+00 14952   0.444E+00    0.365E+00
DAV:   3    -0.628271759241E+03   -0.31102E-02   -0.51654E-01 14100   0.144E+00    0.253E+00
DAV:   4    -0.628243996234E+03    0.27763E-01   -0.13534E-01 15684   0.819E-01    0.206E+00
DAV:   5    -0.628234115755E+03    0.98805E-02   -0.60181E-02 14568   0.753E-01    0.109E+00
DAV:   6    -0.628228475645E+03    0.56401E-02   -0.64533E-02 15900   0.711E-01    0.545E-01
DAV:   7    -0.628228105976E+03    0.36967E-03   -0.43299E-02 15732   0.539E-01    0.466E-01
DAV:   8    -0.628228082613E+03    0.23363E-04   -0.35536E-03 15120   0.208E-01    0.159E-01
DAV:   9    -0.628228009860E+03    0.72753E-04   -0.20818E-03 15552   0.122E-01    0.798E-02
DAV:  10    -0.628227987624E+03    0.22236E-04   -0.51876E-04 11688   0.488E-02
   5 F= -.62822799E+03 E0= -.62822799E+03  d E =-.543538E-01  mag=    19.9935
       N       E                     dE             d eps       ncg     rms          rms(c)
DAV:   1    -0.628328927256E+03   -0.10092E+00   -0.31301E+01 10752   0.109E+01    0.285E+00
DAV:   2    -0.628356448083E+03   -0.27521E-01   -0.18336E+00 15084   0.383E+00    0.382E+00
DAV:   3    -0.628337732047E+03    0.18716E-01   -0.32664E-01 14808   0.120E+00    0.251E+00
DAV:   4    -0.628319379632E+03    0.18352E-01   -0.15566E-01 15756   0.883E-01    0.206E+00
DAV:   5    -0.628316636354E+03    0.27433E-02   -0.45547E-02 13860   0.617E-01    0.108E+00
DAV:   6    -0.628310201594E+03    0.64348E-02   -0.47087E-02 15792   0.506E-01    0.560E-01
DAV:   7    -0.628309177066E+03    0.10245E-02   -0.22387E-02 15396   0.329E-01    0.351E-01
DAV:   8    -0.628309086849E+03    0.90216E-04   -0.24964E-03 15324   0.163E-01    0.129E-01
DAV:   9    -0.628309037543E+03    0.49307E-04   -0.10794E-03 14520   0.857E-02    0.644E-02
DAV:  10    -0.628309026660E+03    0.10882E-04   -0.24773E-04  7656   0.374E-02
   6 F= -.62830903E+03 E0= -.62830903E+03  d E =-.810390E-01  mag=    19.9956
       N       E                     dE             d eps       ncg     rms          rms(c)
DAV:   1    -0.628389324205E+03   -0.80287E-01   -0.53944E+00 10752   0.448E+00    0.138E+00
DAV:   2    -0.628390392107E+03   -0.10679E-02   -0.40418E-01 14976   0.178E+00    0.188E+00
DAV:   3    -0.628383781007E+03    0.66111E-02   -0.61815E-02 14316   0.526E-01    0.134E+00
DAV:   4    -0.628379636874E+03    0.41441E-02   -0.47987E-02 15228   0.458E-01    0.100E+00
DAV:   5    -0.628377552413E+03    0.20845E-02   -0.15716E-02 14640   0.352E-01    0.557E-01
DAV:   6    -0.628376335686E+03    0.12167E-02   -0.97971E-03 15804   0.222E-01    0.324E-01
DAV:   7    -0.628375881414E+03    0.45427E-03   -0.47793E-03 15012   0.139E-01    0.157E-01
DAV:   8    -0.628375760829E+03    0.12058E-03   -0.77381E-04 13764   0.713E-02    0.773E-02
DAV:   9    -0.628375728338E+03    0.32491E-04   -0.18029E-04  7716   0.436E-02
   7 F= -.62837573E+03 E0= -.62837573E+03  d E =-.667017E-01  mag=    19.9969
       N       E                     dE             d eps       ncg     rms          rms(c)
DAV:   1    -0.628386296168E+03   -0.10535E-01   -0.75018E+00 10752   0.537E+00    0.574E-01
DAV:   2    -0.628407552711E+03   -0.21257E-01   -0.21856E-01 13056   0.948E-01    0.389E-01
DAV:   3    -0.628407734619E+03   -0.18191E-03   -0.94146E-03 15648   0.208E-01    0.274E-01
DAV:   4    -0.628407376057E+03    0.35856E-03   -0.93651E-04 13944   0.745E-02    0.178E-01
DAV:   5    -0.628406998924E+03    0.37713E-03   -0.15759E-03 14832   0.121E-01    0.651E-02
DAV:   6    -0.628407061516E+03   -0.62593E-04   -0.76603E-04 11760   0.648E-02
   8 F= -.62840706E+03 E0= -.62840706E+03  d E =-.313332E-01  mag=    19.9975
       N       E                     dE             d eps       ncg     rms          rms(c)
DAV:   1    -0.628414638948E+03   -0.76400E-02   -0.61947E+00 10752   0.487E+00    0.560E-01
DAV:   2    -0.628431013224E+03   -0.16374E-01   -0.18959E-01 13368   0.905E-01    0.484E-01
DAV:   3    -0.628430658824E+03    0.35440E-03   -0.98238E-03 14676   0.228E-01    0.274E-01
DAV:   4    -0.628430170958E+03    0.48787E-03   -0.30133E-03 15996   0.145E-01    0.218E-01
DAV:   5    -0.628430115740E+03    0.55219E-04   -0.15344E-03 15708   0.102E-01    0.125E-01
DAV:   6    -0.628430054721E+03    0.61019E-04   -0.19046E-04  6816   0.449E-02
   9 F= -.62843005E+03 E0= -.62843005E+03  d E =-.229932E-01  mag=    19.9980
       N       E                     dE             d eps       ncg     rms          rms(c)
DAV:   1    -0.628435932772E+03   -0.58170E-02   -0.77469E-01 10752   0.175E+00    0.348E-01
DAV:   2    -0.628437349028E+03   -0.14163E-02   -0.35166E-02 14772   0.476E-01    0.415E-01
DAV:   3    -0.628436928536E+03    0.42049E-03   -0.36516E-03 14532   0.148E-01    0.253E-01
DAV:   4    -0.628436726886E+03    0.20165E-03   -0.11285E-03 12708   0.752E-02    0.183E-01
DAV:   5    -0.628436678527E+03    0.48359E-04   -0.30796E-04  9852   0.626E-02
  10 F= -.62843668E+03 E0= -.62843668E+03  d E =-.662381E-02  mag=    19.9984
       N       E                     dE             d eps       ncg     rms          rms(c)
DAV:   1    -0.628442453208E+03   -0.57263E-02   -0.22156E+00 10752   0.292E+00    0.299E-01
DAV:   2    -0.628448368851E+03   -0.59156E-02   -0.63492E-02 12660   0.510E-01    0.214E-01
DAV:   3    -0.628448367383E+03    0.14686E-05   -0.28447E-03 14976   0.110E-01    0.129E-01
DAV:   4    -0.628448209452E+03    0.15793E-03   -0.66924E-04 12732   0.705E-02    0.860E-02
DAV:   5    -0.628448197557E+03    0.11894E-04   -0.43709E-04  9660   0.580E-02
  11 F= -.62844820E+03 E0= -.62844820E+03  d E =-.115190E-01  mag=    19.9987
       N       E                     dE             d eps       ncg     rms          rms(c)
DAV:   1    -0.628447079696E+03    0.11298E-02   -0.63275E+00 10752   0.493E+00    0.493E-01
DAV:   2    -0.628464152807E+03   -0.17073E-01   -0.17952E-01 12828   0.863E-01    0.345E-01
DAV:   3    -0.628464260256E+03   -0.10745E-03   -0.83322E-03 15312   0.192E-01    0.229E-01
DAV:   4    -0.628463890073E+03    0.37018E-03   -0.12199E-03 14808   0.953E-02    0.157E-01
DAV:   5    -0.628463731603E+03    0.15847E-03   -0.13981E-03 15024   0.107E-01    0.705E-02
DAV:   6    -0.628463741549E+03   -0.99468E-05   -0.57074E-04 11916   0.588E-02
  12 F= -.62846374E+03 E0= -.62846374E+03  d E =-.155440E-01  mag=    19.9989
       N       E                     dE             d eps       ncg     rms          rms(c)
DAV:   1    -0.628458341097E+03    0.53905E-02   -0.65654E-01 10776   0.161E+00    0.230E-01
DAV:   2    -0.628459842005E+03   -0.15009E-02   -0.23106E-02 14376   0.372E-01    0.284E-01
DAV:   3    -0.628459700958E+03    0.14105E-03   -0.19218E-03 14100   0.103E-01    0.180E-01
DAV:   4    -0.628459582394E+03    0.11856E-03   -0.41264E-04 10464   0.458E-02    0.143E-01
DAV:   5    -0.628459520209E+03    0.62185E-04   -0.16272E-04  8208   0.407E-02
  13 F= -.62845952E+03 E0= -.62845952E+03  d E =0.422134E-02  mag=    19.9991
       N       E                     dE             d eps       ncg     rms          rms(c)
DAV:   1    -0.628461778285E+03   -0.21959E-02   -0.25610E+00 10752   0.315E+00    0.308E-01
DAV:   2    -0.628468668183E+03   -0.68899E-02   -0.72804E-02 13056   0.568E-01    0.270E-01
DAV:   3    -0.628468606113E+03    0.62070E-04   -0.33809E-03 15204   0.133E-01    0.163E-01
DAV:   4    -0.628468429927E+03    0.17619E-03   -0.38480E-04 10272   0.579E-02    0.122E-01
DAV:   5    -0.628468306638E+03    0.12329E-03   -0.63344E-04 12756   0.847E-02    0.499E-02
DAV:   6    -0.628468331238E+03   -0.24600E-04   -0.47870E-04 10788   0.492E-02
  14 F= -.62846833E+03 E0= -.62846833E+03  d E =-.881103E-02  mag=    19.9993
       N       E                     dE             d eps       ncg     rms          rms(c)
DAV:   1    -0.628470547507E+03   -0.22409E-02   -0.54887E-01 10752   0.145E+00    0.176E-01
DAV:   2    -0.628472045961E+03   -0.14985E-02   -0.16153E-02 12912   0.264E-01    0.144E-01
DAV:   3    -0.628472055812E+03   -0.98506E-05   -0.89414E-04 13572   0.647E-02
  15 F= -.62847206E+03 E0= -.62847206E+03  d E =-.372457E-02  mag=    19.9994
       N       E                     dE             d eps       ncg     rms          rms(c)
DAV:   1    -0.628473518883E+03   -0.14729E-02   -0.17975E+00 10752   0.263E+00    0.277E-01
DAV:   2    -0.628478040880E+03   -0.45220E-02   -0.48103E-02 12732   0.456E-01    0.205E-01
DAV:   3    -0.628478047175E+03   -0.62949E-05   -0.27721E-03 15384   0.111E-01    0.118E-01
DAV:   4    -0.628477892369E+03    0.15481E-03   -0.50259E-04 11412   0.663E-02    0.846E-02
DAV:   5    -0.628477867875E+03    0.24493E-04   -0.57267E-04 12192   0.622E-02
  16 F= -.62847787E+03 E0= -.62847787E+03  d E =-.581206E-02  mag=    19.9995
       N       E                     dE             d eps       ncg     rms          rms(c)
DAV:   1    -0.628436059947E+03    0.41832E-01   -0.20885E+01 10752   0.895E+00    0.998E-01
DAV:   2    -0.628493664745E+03   -0.57605E-01   -0.57291E-01 12468   0.152E+00    0.655E-01
DAV:   3    -0.628494464238E+03   -0.79949E-03   -0.23848E-02 15000   0.320E-01    0.388E-01
DAV:   4    -0.628493200186E+03    0.12641E-02   -0.41682E-03 15432   0.174E-01    0.255E-01
DAV:   5    -0.628492840349E+03    0.35984E-03   -0.37542E-03 14784   0.159E-01    0.111E-01
DAV:   6    -0.628492834116E+03    0.62325E-05   -0.11139E-03 13092   0.872E-02    0.797E-02
DAV:   7    -0.628492809129E+03    0.24987E-04   -0.56460E-04 10716   0.523E-02
  17 F= -.62849281E+03 E0= -.62849281E+03  d E =-.149413E-01  mag=    19.9996
       N       E                     dE             d eps       ncg     rms          rms(c)
DAV:   1    -0.628493331932E+03   -0.49782E-03   -0.33633E-01 10824   0.114E+00    0.131E-01
DAV:   2    -0.628494225442E+03   -0.89351E-03   -0.93027E-03 12216   0.193E-01    0.615E-02
DAV:   3    -0.628494246787E+03   -0.21345E-04   -0.33565E-04  9876   0.397E-02
  18 F= -.62849425E+03 E0= -.62849425E+03  d E =-.143766E-02  mag=    19.9996
       N       E                     dE             d eps       ncg     rms          rms(c)
DAV:   1    -0.628494546078E+03   -0.32064E-03   -0.14140E-01 10872   0.751E-01    0.130E-01
DAV:   2    -0.628494784886E+03   -0.23881E-03   -0.46452E-03 13896   0.149E-01    0.880E-02
DAV:   3    -0.628494761771E+03    0.23116E-04   -0.24487E-04  8868   0.475E-02
  19 F= -.62849476E+03 E0= -.62849476E+03  d E =-.514984E-03  mag=    19.9997
       N       E                     dE             d eps       ncg     rms          rms(c)
DAV:   1    -0.628495021115E+03   -0.23623E-03   -0.64415E-01 10764   0.156E+00    0.168E-01
DAV:   2    -0.628496689348E+03   -0.16682E-02   -0.16470E-02 12132   0.254E-01    0.103E-01
DAV:   3    -0.628496711331E+03   -0.21984E-04   -0.63924E-04 12240   0.502E-02
  20 F= -.62849671E+03 E0= -.62849671E+03  d E =-.194956E-02  mag=    19.9997
       N       E                     dE             d eps       ncg     rms          rms(c)
DAV:   1    -0.628496852624E+03   -0.16328E-03   -0.68316E-01 10752   0.161E+00    0.189E-01
DAV:   2    -0.628498527030E+03   -0.16744E-02   -0.17488E-02 12528   0.278E-01    0.152E-01
DAV:   3    -0.628498522036E+03    0.49937E-05   -0.83580E-04 13308   0.691E-02
  21 F= -.62849852E+03 E0= -.62849852E+03  d E =-.181070E-02  mag=    19.9997
       N       E                     dE             d eps       ncg     rms          rms(c)
DAV:   1    -0.628498514561E+03    0.12469E-04   -0.80399E-01 10752   0.173E+00    0.210E-01
DAV:   2    -0.628500466800E+03   -0.19522E-02   -0.19446E-02 12144   0.276E-01    0.146E-01
DAV:   3    -0.628500481064E+03   -0.14264E-04   -0.92744E-04 13512   0.596E-02
  22 F= -.62850048E+03 E0= -.62850048E+03  d E =-.195903E-02  mag=    19.9998
       N       E                     dE             d eps       ncg     rms          rms(c)
DAV:   1    -0.628500946859E+03   -0.48006E-03   -0.27949E-01 10776   0.103E+00    0.137E-01
DAV:   2    -0.628501509751E+03   -0.56289E-03   -0.70992E-03 12828   0.182E-01    0.942E-02
DAV:   3    -0.628501500949E+03    0.88024E-05   -0.47567E-04 11616   0.526E-02
  23 F= -.62850150E+03 E0= -.62850150E+03  d E =-.101988E-02  mag=    19.9998
       N       E                     dE             d eps       ncg     rms          rms(c)
DAV:   1    -0.628501923086E+03   -0.41333E-03   -0.25462E-01 10752   0.976E-01    0.116E-01
DAV:   2    -0.628502535463E+03   -0.61238E-03   -0.62833E-03 12324   0.161E-01    0.875E-02
DAV:   3    -0.628502528115E+03    0.73480E-05   -0.29791E-04  9372   0.394E-02
  24 F= -.62850253E+03 E0= -.62850253E+03  d E =-.102717E-02  mag=    19.9998
       N       E                     dE             d eps       ncg     rms          rms(c)
DAV:   1    -0.628502589216E+03   -0.53753E-04   -0.15565E-03 10224   0.778E-02    0.320E-02
DAV:   2    -0.628502590498E+03   -0.12820E-05   -0.51474E-05  6096   0.192E-02
  25 F= -.62850259E+03 E0= -.62850259E+03  d E =-.623829E-04  mag=    19.9998
       N       E                     dE             d eps       ncg     rms          rms(c)
DAV:   1    -0.628502638867E+03   -0.49652E-04   -0.48512E-01 10752   0.135E+00    0.154E-01
DAV:   2    -0.628503893453E+03   -0.12546E-02   -0.12068E-02 11904   0.216E-01    0.907E-02
DAV:   3    -0.628503928874E+03   -0.35421E-04   -0.52766E-04 11808   0.440E-02
  26 F= -.62850393E+03 E0= -.62850393E+03  d E =-.133838E-02  mag=    19.9998
       N       E                     dE             d eps       ncg     rms          rms(c)
DAV:   1    -0.628504166993E+03   -0.27354E-03   -0.32435E-02 10920   0.350E-01    0.476E-02
DAV:   2    -0.628504226262E+03   -0.59268E-04   -0.82677E-04 11988   0.635E-02
  27 F= -.62850423E+03 E0= -.62850423E+03  d E =-.297388E-03  mag=    19.9998
       N       E                     dE             d eps       ncg     rms          rms(c)
DAV:   1    -0.628504557673E+03   -0.39068E-03   -0.29789E-01 10752   0.105E+00    0.136E-01
DAV:   2    -0.628505225949E+03   -0.66828E-03   -0.76446E-03 12504   0.176E-01    0.933E-02
DAV:   3    -0.628505215234E+03    0.10715E-04   -0.36428E-04 10140   0.487E-02
  28 F= -.62850522E+03 E0= -.62850522E+03  d E =-.988972E-03  mag=    19.9999
       N       E                     dE             d eps       ncg     rms          rms(c)
DAV:   1    -0.628505329352E+03   -0.10340E-03   -0.68948E-03 10680   0.160E-01    0.419E-02
DAV:   2    -0.628505331611E+03   -0.22596E-05   -0.16535E-04  6744   0.357E-02
  29 F= -.62850533E+03 E0= -.62850533E+03  d E =-.116377E-03  mag=    19.9999
       N       E                     dE             d eps       ncg     rms          rms(c)
DAV:   1    -0.628505635071E+03   -0.30572E-03   -0.10954E-01 10788   0.641E-01    0.650E-02
DAV:   2    -0.628505894672E+03   -0.25960E-03   -0.28187E-03 12984   0.108E-01    0.532E-02
DAV:   3    -0.628505886622E+03    0.80498E-05   -0.10020E-04  6672   0.262E-02
  30 F= -.62850589E+03 E0= -.62850589E+03  d E =-.555011E-03  mag=    19.9999
       N       E                     dE             d eps       ncg     rms          rms(c)
DAV:   1    -0.628505964054E+03   -0.69383E-04   -0.36921E-01 10752   0.118E+00    0.140E-01
DAV:   2    -0.628506871698E+03   -0.90764E-03   -0.94718E-03 12720   0.208E-01    0.126E-01
DAV:   3    -0.628506888724E+03   -0.17026E-04   -0.77215E-04 13296   0.584E-02
  31 F= -.62850689E+03 E0= -.62850689E+03  d E =-.100210E-02  mag=    19.9999
       N       E                     dE             d eps       ncg     rms          rms(c)
DAV:   1    -0.628507205662E+03   -0.33396E-03   -0.99153E-02 10776   0.611E-01    0.852E-02
DAV:   2    -0.628507446999E+03   -0.24134E-03   -0.29784E-03 13848   0.123E-01    0.921E-02
DAV:   3    -0.628507419843E+03    0.27156E-04   -0.15892E-04  7116   0.362E-02
  32 F= -.62850742E+03 E0= -.62850742E+03  d E =-.531119E-03  mag=    19.9999
       N       E                     dE             d eps       ncg     rms          rms(c)
DAV:   1    -0.628507644566E+03   -0.19757E-03   -0.55386E-02 10800   0.460E-01    0.850E-02
DAV:   2    -0.628507734502E+03   -0.89936E-04   -0.15920E-03 13752   0.980E-02    0.809E-02
DAV:   3    -0.628507721926E+03    0.12576E-04   -0.13156E-04  7368   0.311E-02
  33 F= -.62850772E+03 E0= -.62850772E+03  d E =-.302083E-03  mag=    19.9999
       N       E                     dE             d eps       ncg     rms          rms(c)
DAV:   1    -0.628507969728E+03   -0.23523E-03   -0.13191E-01 10752   0.706E-01    0.934E-02
DAV:   2    -0.628508302280E+03   -0.33255E-03   -0.40544E-03 13896   0.149E-01    0.113E-01
DAV:   3    -0.628508282391E+03    0.19889E-04   -0.33740E-04  9360   0.437E-02
  34 F= -.62850828E+03 E0= -.62850828E+03  d E =-.560464E-03  mag=    19.9999
       N       E                     dE             d eps       ncg     rms          rms(c)
DAV:   1    -0.628508555766E+03   -0.25349E-03   -0.49288E-02 10800   0.434E-01    0.787E-02
DAV:   2    -0.628508667311E+03   -0.11154E-03   -0.18412E-03 14424   0.914E-02    0.665E-02
DAV:   3    -0.628508637125E+03    0.30186E-04   -0.11101E-04  6804   0.330E-02
  35 F= -.62850864E+03 E0= -.62850864E+03  d E =-.354734E-03  mag=    19.9999
       N       E                     dE             d eps       ncg     rms          rms(c)
DAV:   1    -0.628508870259E+03   -0.20295E-03   -0.10904E-01 10764   0.640E-01    0.719E-02
DAV:   2    -0.628509112118E+03   -0.24186E-03   -0.27774E-03 13044   0.117E-01    0.709E-02
DAV:   3    -0.628509106720E+03    0.53982E-05   -0.16664E-04  7476   0.321E-02
  36 F= -.62850911E+03 E0= -.62850911E+03  d E =-.469595E-03  mag=    19.9999
       N       E                     dE             d eps       ncg     rms          rms(c)
DAV:   1    -0.628509340168E+03   -0.22805E-03   -0.72096E-02 10776   0.520E-01    0.646E-02
DAV:   2    -0.628509523330E+03   -0.18316E-03   -0.21672E-03 13824   0.103E-01    0.759E-02
DAV:   3    -0.628509506415E+03    0.16914E-04   -0.12796E-04  6648   0.297E-02
  37 F= -.62850951E+03 E0= -.62850951E+03  d E =-.399696E-03  mag=    19.9999
       N       E                     dE             d eps       ncg     rms          rms(c)
DAV:   1    -0.628509723938E+03   -0.20061E-03   -0.44160E-02 10800   0.406E-01    0.557E-02
DAV:   2    -0.628509830428E+03   -0.10649E-03   -0.12273E-03 12504   0.709E-02    0.408E-02
DAV:   3    -0.628509823069E+03    0.73595E-05   -0.52018E-05  6000   0.214E-02
  38 F= -.62850982E+03 E0= -.62850982E+03  d E =-.316654E-03  mag=    19.9999
       N       E                     dE             d eps       ncg     rms          rms(c)
DAV:   1    -0.628510039550E+03   -0.20912E-03   -0.55931E-02 10776   0.455E-01    0.451E-02
DAV:   2    -0.628510169969E+03   -0.13042E-03   -0.13338E-03 12180   0.714E-02    0.317E-02
DAV:   3    -0.628510167124E+03    0.28447E-05   -0.39481E-05  5952   0.156E-02
  39 F= -.62851017E+03 E0= -.62851017E+03  d E =-.344055E-03  mag=    19.9999
       N       E                     dE             d eps       ncg     rms          rms(c)
DAV:   1    -0.628510397544E+03   -0.22758E-03   -0.12113E-01 10752   0.667E-01    0.665E-02
DAV:   2    -0.628510672719E+03   -0.27517E-03   -0.29279E-03 12408   0.104E-01    0.452E-02
DAV:   3    -0.628510669733E+03    0.29865E-05   -0.10014E-04  6960   0.256E-02
  40 F= -.62851067E+03 E0= -.62851067E+03  d E =-.502609E-03  mag=    20.0000
       N       E                     dE             d eps       ncg     rms          rms(c)
DAV:   1    -0.628510794219E+03   -0.12150E-03   -0.11035E-02 10788   0.202E-01    0.293E-02
DAV:   2    -0.628510815006E+03   -0.20787E-04   -0.25325E-04  7644   0.346E-02
  41 F= -.62851082E+03 E0= -.62851082E+03  d E =-.145273E-03  mag=    20.0000
       N       E                     dE             d eps       ncg     rms          rms(c)
DAV:   1    -0.628510651744E+03    0.14247E-03   -0.30983E-01 10752   0.107E+00    0.154E-01
DAV:   2    -0.628511515702E+03   -0.86396E-03   -0.75777E-03 12096   0.173E-01    0.922E-02
DAV:   3    -0.628511559986E+03   -0.44284E-04   -0.39047E-04 10284   0.388E-02
  42 F= -.62851156E+03 E0= -.62851156E+03  d E =-.744980E-03  mag=    20.0000
       N       E                     dE             d eps       ncg     rms          rms(c)
DAV:   1    -0.628510607771E+03    0.90793E-03   -0.13546E-01 10752   0.712E-01    0.111E-01
DAV:   2    -0.628511054700E+03   -0.44693E-03   -0.36640E-03 11832   0.122E-01    0.607E-02
DAV:   3    -0.628511081384E+03   -0.26685E-04   -0.13687E-04  7320   0.285E-02
  43 F= -.62851108E+03 E0= -.62851108E+03  d E =0.478602E-03  mag=    20.0000
       N       E                     dE             d eps       ncg     rms          rms(c)
DAV:   1    -0.628511195297E+03   -0.14060E-03   -0.23237E-01 10752   0.936E-01    0.116E-01
DAV:   2    -0.628511689229E+03   -0.49393E-03   -0.61944E-03 12300   0.162E-01    0.721E-02
DAV:   3    -0.628511685909E+03    0.33197E-05   -0.23624E-04  8520   0.382E-02
  44 F= -.62851169E+03 E0= -.62851169E+03  d E =-.604525E-03  mag=    20.0000
       N       E                     dE             d eps       ncg     rms          rms(c)
DAV:   1    -0.628511941819E+03   -0.25259E-03   -0.76539E-02 10752   0.532E-01    0.611E-02
DAV:   2    -0.628512112841E+03   -0.17102E-03   -0.20673E-03 12948   0.954E-02    0.599E-02
DAV:   3    -0.628512105014E+03    0.78271E-05   -0.92237E-05  6240   0.241E-02
  45 F= -.62851211E+03 E0= -.62851211E+03  d E =-.419105E-03  mag=    20.0000
       N       E                     dE             d eps       ncg     rms          rms(c)
DAV:   1    -0.628512188697E+03   -0.75855E-04   -0.65537E-03 10920   0.156E-01    0.382E-02
DAV:   2    -0.628512192247E+03   -0.35506E-05   -0.16621E-04  7344   0.304E-02
  46 F= -.62851219E+03 E0= -.62851219E+03  d E =-.872330E-04  mag=    20.0000
       N       E                     dE             d eps       ncg     rms          rms(c)
DAV:   1    -0.628512270646E+03   -0.81950E-04   -0.18792E-01 10752   0.835E-01    0.914E-02
DAV:   2    -0.628512711437E+03   -0.44079E-03   -0.50984E-03 12960   0.154E-01    0.961E-02
DAV:   3    -0.628512698048E+03    0.13389E-04   -0.27434E-04  8628   0.413E-02
  47 F= -.62851270E+03 E0= -.62851270E+03  d E =-.505800E-03  mag=    20.0000
       N       E                     dE             d eps       ncg     rms          rms(c)
DAV:   1    -0.628512711183E+03    0.25329E-06   -0.81359E-03 10776   0.171E-01    0.491E-02
DAV:   2    -0.628512726480E+03   -0.15297E-04   -0.67536E-04 12792   0.674E-02
  48 F= -.62851273E+03 E0= -.62851273E+03  d E =-.284328E-04  mag=    20.0000
       N       E                     dE             d eps       ncg     rms          rms(c)
DAV:   1    -0.628512910182E+03   -0.19900E-03   -0.11261E-01 10776   0.649E-01    0.837E-02
DAV:   2    -0.628513143852E+03   -0.23367E-03   -0.29975E-03 12192   0.109E-01    0.476E-02
DAV:   3    -0.628513134446E+03    0.94054E-05   -0.10270E-04  6684   0.278E-02
  49 F= -.62851313E+03 E0= -.62851313E+03  d E =-.407966E-03  mag=    20.0000
       N       E                     dE             d eps       ncg     rms          rms(c)
DAV:   1    -0.628513306725E+03   -0.16287E-03   -0.42913E-02 10800   0.396E-01    0.445E-02
DAV:   2    -0.628513400098E+03   -0.93372E-04   -0.11003E-03 12360   0.658E-02    0.388E-02
DAV:   3    -0.628513394028E+03    0.60692E-05   -0.39463E-05  5988   0.168E-02
  50 F= -.62851339E+03 E0= -.62851339E+03  d E =-.259582E-03  mag=    20.0000
       N       E                     dE             d eps       ncg     rms          rms(c)
DAV:   1    -0.628513440148E+03   -0.40050E-04   -0.17969E-03  9792   0.810E-02    0.199E-02
DAV:   2    -0.628513443178E+03   -0.30302E-05   -0.42334E-05  5808   0.154E-02
  51 F= -.62851344E+03 E0= -.62851344E+03  d E =-.491498E-04  mag=    20.0000
       N       E                     dE             d eps       ncg     rms          rms(c)
DAV:   1    -0.628513436711E+03    0.34373E-05   -0.25903E-01 10752   0.977E-01    0.118E-01
DAV:   2    -0.628514051691E+03   -0.61498E-03   -0.65992E-03 12372   0.165E-01    0.841E-02
DAV:   3    -0.628514060195E+03   -0.85047E-05   -0.36429E-04 10092   0.461E-02
  52 F= -.62851406E+03 E0= -.62851406E+03  d E =-.617017E-03  mag=    20.0000
       N       E                     dE             d eps       ncg     rms          rms(c)
DAV:   1    -0.628514138146E+03   -0.86455E-04   -0.98930E-03 10692   0.193E-01    0.445E-02
DAV:   2    -0.628514150191E+03   -0.12045E-04   -0.23859E-04  7608   0.371E-02
  53 F= -.62851415E+03 E0= -.62851415E+03  d E =-.899951E-04  mag=    20.0000
       N       E                     dE             d eps       ncg     rms          rms(c)
DAV:   1    -0.628514074824E+03    0.63321E-04   -0.12478E-02 10776   0.221E-01    0.491E-02
DAV:   2    -0.628514084182E+03   -0.93575E-05   -0.56574E-04 11748   0.688E-02
  54 F= -.62851408E+03 E0= -.62851408E+03  d E =0.660089E-04  mag=    20.0000
       N       E                     dE             d eps       ncg     rms          rms(c)
DAV:   1    -0.628514275423E+03   -0.20060E-03   -0.16517E-01 10752   0.788E-01    0.115E-01
DAV:   2    -0.628514564300E+03   -0.28888E-03   -0.44316E-03 12276   0.134E-01    0.649E-02
DAV:   3    -0.628514552214E+03    0.12086E-04   -0.17126E-04  7896   0.371E-02
  55 F= -.62851455E+03 E0= -.62851455E+03  d E =-.468033E-03  mag=    20.0000
       N       E                     dE             d eps       ncg     rms          rms(c)
DAV:   1    -0.628514702113E+03   -0.13781E-03   -0.29663E-02 10776   0.331E-01    0.515E-02
DAV:   2    -0.628514759225E+03   -0.57112E-04   -0.79945E-04 12096   0.578E-02
  56 F= -.62851476E+03 E0= -.62851476E+03  d E =-.207011E-03  mag=    20.0000
       N       E                     dE             d eps       ncg     rms          rms(c)
DAV:   1    -0.628514857461E+03   -0.15535E-03   -0.15002E-02 10896   0.236E-01    0.367E-02
DAV:   2    -0.628514886216E+03   -0.28754E-04   -0.38158E-04  9252   0.442E-02
  57 F= -.62851489E+03 E0= -.62851489E+03  d E =-.126990E-03  mag=    20.0000
       N       E                     dE             d eps       ncg     rms          rms(c)
DAV:   1    -0.628514969564E+03   -0.11210E-03   -0.11858E-01 10752   0.665E-01    0.701E-02
DAV:   2    -0.628515261954E+03   -0.29239E-03   -0.32461E-03 13068   0.118E-01    0.651E-02
DAV:   3    -0.628515252565E+03    0.93885E-05   -0.15152E-04  7176   0.302E-02
  58 F= -.62851525E+03 E0= -.62851525E+03  d E =-.366350E-03  mag=    20.0000
       N       E                     dE             d eps       ncg     rms          rms(c)
DAV:   1    -0.628515404638E+03   -0.14268E-03   -0.30533E-02 10776   0.337E-01    0.429E-02
DAV:   2    -0.628515476870E+03   -0.72232E-04   -0.95354E-04 12864   0.661E-02
  59 F= -.62851548E+03 E0= -.62851548E+03  d E =-.224304E-03  mag=    20.0000
       N       E                     dE             d eps       ncg     rms          rms(c)
DAV:   1    -0.628515623311E+03   -0.21867E-03   -0.61545E-02 10800   0.481E-01    0.900E-02
DAV:   2    -0.628515744561E+03   -0.12125E-03   -0.18682E-03 13572   0.957E-02    0.709E-02
DAV:   3    -0.628515728188E+03    0.16373E-04   -0.11553E-04  7080   0.339E-02
  60 F= -.62851573E+03 E0= -.62851573E+03  d E =-.251319E-03  mag=    20.0000
       N       E                     dE             d eps       ncg     rms          rms(c)
DAV:   1    -0.628515839772E+03   -0.95211E-04   -0.11547E-02 10848   0.209E-01    0.377E-02
DAV:   2    -0.628515853392E+03   -0.13620E-04   -0.33487E-04  9612   0.434E-02
  61 F= -.62851585E+03 E0= -.62851585E+03  d E =-.125204E-03  mag=    20.0000
       N       E                     dE             d eps       ncg     rms          rms(c)
DAV:   1    -0.628516086231E+03   -0.24646E-03   -0.85346E-02 10812   0.571E-01    0.107E-01
DAV:   2    -0.628516141826E+03   -0.55594E-04   -0.26013E-03 13068   0.106E-01    0.667E-02
DAV:   3    -0.628516122892E+03    0.18933E-04   -0.16776E-04  7884   0.414E-02
  62 F= -.62851612E+03 E0= -.62851612E+03  d E =-.269500E-03  mag=    20.0000
       N       E                     dE             d eps       ncg     rms          rms(c)
DAV:   1    -0.628516274185E+03   -0.13236E-03   -0.63850E-02 10776   0.485E-01    0.550E-02
DAV:   2    -0.628516410892E+03   -0.13671E-03   -0.16019E-03 12720   0.797E-02    0.426E-02
DAV:   3    -0.628516404354E+03    0.65381E-05   -0.64424E-05  6276   0.223E-02
  63 F= -.62851640E+03 E0= -.62851640E+03  d E =-.281462E-03  mag=    20.0000
       N       E                     dE             d eps       ncg     rms          rms(c)
DAV:   1    -0.628516495110E+03   -0.84218E-04   -0.15075E-02 10824   0.242E-01    0.595E-02
DAV:   2    -0.628516484741E+03    0.10370E-04   -0.55987E-04 11256   0.583E-02
  64 F= -.62851648E+03 E0= -.62851648E+03  d E =-.803867E-04  mag=    20.0000
       N       E                     dE             d eps       ncg     rms          rms(c)
DAV:   1    -0.628516594414E+03   -0.99303E-04   -0.33248E-02 10824   0.353E-01    0.687E-02
DAV:   2    -0.628516634793E+03   -0.40379E-04   -0.99932E-04 12612   0.661E-02
  65 F= -.62851663E+03 E0= -.62851663E+03  d E =-.150052E-03  mag=    20.0000
       N       E                     dE             d eps       ncg     rms          rms(c)
DAV:   1    -0.628516773000E+03   -0.17859E-03   -0.96224E-02 10764   0.609E-01    0.108E-01
DAV:   2    -0.628516894743E+03   -0.12174E-03   -0.32680E-03 13296   0.130E-01    0.914E-02
DAV:   3    -0.628516875278E+03    0.19465E-04   -0.24720E-04  7884   0.400E-02
  66 F= -.62851688E+03 E0= -.62851688E+03  d E =-.240485E-03  mag=    20.0000
       N       E                     dE             d eps       ncg     rms          rms(c)
DAV:   1    -0.628516987005E+03   -0.92262E-04   -0.12370E-02 10632   0.211E-01    0.437E-02
DAV:   2    -0.628517037844E+03   -0.50839E-04   -0.81802E-04 12672   0.636E-02
  67 F= -.62851704E+03 E0= -.62851704E+03  d E =-.162567E-03  mag=    20.0000
       N       E                     dE             d eps       ncg     rms          rms(c)
DAV:   1    -0.628517148274E+03   -0.16127E-03   -0.50617E-02 10752   0.436E-01    0.803E-02
DAV:   2    -0.628517198078E+03   -0.49804E-04   -0.13691E-03 12912   0.820E-02    0.564E-02
DAV:   3    -0.628517184751E+03    0.13326E-04   -0.96366E-05  6900   0.304E-02
  68 F= -.62851718E+03 E0= -.62851718E+03  d E =-.146907E-03  mag=    20.0000
       N       E                     dE             d eps       ncg     rms          rms(c)
DAV:   1    -0.628517404593E+03   -0.20652E-03   -0.27019E-02 10848   0.325E-01    0.727E-02
DAV:   2    -0.628517385962E+03    0.18631E-04   -0.90485E-04 12288   0.702E-02
  69 F= -.62851739E+03 E0= -.62851739E+03  d E =-.201211E-03  mag=    20.0000
       N       E                     dE             d eps       ncg     rms          rms(c)
DAV:   1    -0.628517537285E+03   -0.13269E-03   -0.60353E-02 10776   0.476E-01    0.962E-02
DAV:   2    -0.628517584716E+03   -0.47431E-04   -0.17914E-03 13344   0.893E-02    0.631E-02
DAV:   3    -0.628517566950E+03    0.17766E-04   -0.11233E-04  7632   0.347E-02
  70 F= -.62851757E+03 E0= -.62851757E+03  d E =-.180988E-03  mag=    20.0000
       N       E                     dE             d eps       ncg     rms          rms(c)
DAV:   1    -0.628517437054E+03    0.14766E-03   -0.96958E-03 10704   0.191E-01    0.329E-02
DAV:   2    -0.628517455334E+03   -0.18280E-04   -0.29608E-04  9480   0.410E-02
  71 F= -.62851746E+03 E0= -.62851746E+03  d E =0.111616E-03  mag=    20.0000
       N       E                     dE             d eps       ncg     rms          rms(c)
DAV:   1    -0.628517480361E+03   -0.43307E-04   -0.39907E-03 11112   0.126E-01    0.380E-02
DAV:   2    -0.628517467326E+03    0.13035E-04   -0.16031E-04  6312   0.342E-02
  72 F= -.62851747E+03 E0= -.62851747E+03  d E =-.119921E-04  mag=    20.0000
       N       E                     dE             d eps       ncg     rms          rms(c)
DAV:   1    -0.628517667609E+03   -0.18725E-03   -0.49068E-01 10752   0.138E+00    0.265E-01
DAV:   2    -0.628517875189E+03   -0.20758E-03   -0.15369E-02 13272   0.266E-01    0.171E-01
DAV:   3    -0.628517735553E+03    0.13964E-03   -0.13250E-03 14304   0.108E-01    0.990E-02
DAV:   4    -0.628517676665E+03    0.58888E-04   -0.19200E-04  7092   0.414E-02
  73 F= -.62851768E+03 E0= -.62851768E+03  d E =-.209338E-03  mag=    20.0000
       N       E                     dE             d eps       ncg     rms          rms(c)
DAV:   1    -0.628519411947E+03   -0.16764E-02   -0.13634E+00 10824   0.235E+00    0.581E-01
DAV:   2    -0.628517784089E+03    0.16279E-02   -0.52244E-02 14292   0.512E-01    0.382E-01
DAV:   3    -0.628517049038E+03    0.73505E-03   -0.60811E-03 14508   0.233E-01    0.193E-01
DAV:   4    -0.628516866964E+03    0.18207E-03   -0.14625E-03 15624   0.914E-02    0.113E-01
DAV:   5    -0.628516814520E+03    0.52444E-04   -0.20795E-04  7704   0.392E-02
  74 F= -.62851681E+03 E0= -.62851681E+03  d E =0.862145E-03  mag=    20.0000
       N       E                     dE             d eps       ncg     rms          rms(c)
DAV:   1    -0.628517689111E+03   -0.82215E-03   -0.67545E-01 10764   0.162E+00    0.303E-01
DAV:   2    -0.628518078821E+03   -0.38971E-03   -0.20894E-02 12792   0.306E-01    0.188E-01
DAV:   3    -0.628517942486E+03    0.13634E-03   -0.17384E-03 14388   0.118E-01    0.109E-01
DAV:   4    -0.628517872559E+03    0.69927E-04   -0.39707E-04 10332   0.501E-02
  75 F= -.62851787E+03 E0= -.62851787E+03  d E =-.105804E-02  mag=    20.0000
       N       E                     dE             d eps       ncg     rms          rms(c)
DAV:   1    -0.628517852781E+03    0.89705E-04   -0.13944E-02 10656   0.221E-01    0.507E-02
DAV:   2    -0.628517884660E+03   -0.31879E-04   -0.69698E-04 11664   0.672E-02
  76 F= -.62851788E+03 E0= -.62851788E+03  d E =-.121011E-04  mag=    20.0000
       N       E                     dE             d eps       ncg     rms          rms(c)
DAV:   1    -0.628518007292E+03   -0.15451E-03   -0.31904E-02 10776   0.352E-01    0.983E-02
DAV:   2    -0.628517981496E+03    0.25797E-04   -0.11700E-03 13476   0.797E-02    0.584E-02
DAV:   3    -0.628517959543E+03    0.21953E-04   -0.12954E-04  8004   0.385E-02
  77 F= -.62851796E+03 E0= -.62851796E+03  d E =-.748827E-04  mag=    20.0000
       N       E                     dE             d eps       ncg     rms          rms(c)
DAV:   1    -0.628518008422E+03   -0.26926E-04   -0.69501E-02 10752   0.506E-01    0.129E-01
DAV:   2    -0.628518144837E+03   -0.13642E-03   -0.46108E-03 14676   0.175E-01    0.183E-01
DAV:   3    -0.628518075186E+03    0.69652E-04   -0.53867E-04 11364   0.519E-02
  78 F= -.62851808E+03 E0= -.62851808E+03  d E =-.115643E-03  mag=    20.0000
       N       E                     dE             d eps       ncg     rms          rms(c)
DAV:   1    -0.628518417327E+03   -0.27249E-03   -0.19457E-02 10824   0.283E-01    0.132E-01
DAV:   2    -0.628518396588E+03    0.20739E-04   -0.41181E-03 15624   0.153E-01    0.135E-01
DAV:   3    -0.628518234610E+03    0.16198E-03   -0.62553E-04 12132   0.662E-02    0.521E-02
DAV:   4    -0.628518229170E+03    0.54408E-05   -0.17087E-04  7212   0.257E-02
  79 F= -.62851823E+03 E0= -.62851823E+03  d E =-.153984E-03  mag=    20.0000
       N       E                     dE             d eps       ncg     rms          rms(c)
DAV:   1    -0.628518328597E+03   -0.93987E-04   -0.57972E-02 10752   0.462E-01    0.539E-02
DAV:   2    -0.628518456233E+03   -0.12764E-03   -0.15800E-03 12792   0.830E-02    0.448E-02
DAV:   3    -0.628518448342E+03    0.78915E-05   -0.67104E-05  6120   0.242E-02
  80 F= -.62851845E+03 E0= -.62851845E+03  d E =-.219172E-03  mag=    20.0000
       N       E                     dE             d eps       ncg     rms          rms(c)
DAV:   1    -0.628518444451E+03    0.11782E-04   -0.12079E-04  5628   0.239E-02    0.170E-02
DAV:   2    -0.628518443842E+03    0.60919E-06   -0.21202E-05  5556   0.146E-02
  81 F= -.62851844E+03 E0= -.62851844E+03  d E =0.449995E-05  mag=    20.0000
       N       E                     dE             d eps       ncg     rms          rms(c)
DAV:   1    -0.628518547856E+03   -0.10341E-03   -0.72748E-02 10752   0.520E-01    0.626E-02
DAV:   2    -0.628518687806E+03   -0.13995E-03   -0.19725E-03 12648   0.904E-02    0.453E-02
DAV:   3    -0.628518680346E+03    0.74605E-05   -0.85467E-05  6420   0.268E-02
  82 F= -.62851868E+03 E0= -.62851868E+03  d E =-.236504E-03  mag=    20.0000
       N       E                     dE             d eps       ncg     rms          rms(c)
DAV:   1    -0.628518776732E+03   -0.88925E-04   -0.26770E-02 10752   0.313E-01    0.393E-02
DAV:   2    -0.628518835322E+03   -0.58591E-04   -0.75048E-04 12012   0.573E-02
  83 F= -.62851884E+03 E0= -.62851884E+03  d E =-.154976E-03  mag=    20.0000
       N       E                     dE             d eps       ncg     rms          rms(c)
DAV:   1    -0.628518914421E+03   -0.13769E-03   -0.14402E-02 10800   0.231E-01    0.422E-02
DAV:   2    -0.628518935708E+03   -0.21286E-04   -0.39301E-04  9156   0.437E-02
  84 F= -.62851894E+03 E0= -.62851894E+03  d E =-.100386E-03  mag=    20.0000
       N       E                     dE             d eps       ncg     rms          rms(c)
DAV:   1    -0.628518948177E+03   -0.33755E-04   -0.11593E-01 10752   0.650E-01    0.793E-02
DAV:   2    -0.628519230525E+03   -0.28235E-03   -0.27942E-03 12672   0.103E-01    0.518E-02
DAV:   3    -0.628519232560E+03   -0.20351E-05   -0.12125E-04  7164   0.245E-02
  85 F= -.62851923E+03 E0= -.62851923E+03  d E =-.296852E-03  mag=    20.0000
       N       E                     dE             d eps       ncg     rms          rms(c)
DAV:   1    -0.628519095396E+03    0.13513E-03   -0.14818E-02 10740   0.237E-01    0.332E-02
DAV:   2    -0.628519138215E+03   -0.42819E-04   -0.46983E-04 10812   0.513E-02
  86 F= -.62851914E+03 E0= -.62851914E+03  d E =0.943447E-04  mag=    20.0000
       N       E                     dE             d eps       ncg     rms          rms(c)
DAV:   1    -0.628519115061E+03   -0.19664E-04   -0.16819E-03 10284   0.819E-02    0.196E-02
DAV:   2    -0.628519114958E+03    0.10276E-06   -0.74328E-05  6060   0.236E-02
  87 F= -.62851911E+03 E0= -.62851911E+03  d E =0.232574E-04  mag=    20.0000
       N       E                     dE             d eps       ncg     rms          rms(c)
DAV:   1    -0.628519289298E+03   -0.17424E-03   -0.69287E-02 10800   0.514E-01    0.912E-02
DAV:   2    -0.628519343224E+03   -0.53926E-04   -0.21869E-03 12888   0.101E-01    0.679E-02
DAV:   3    -0.628519326202E+03    0.17022E-04   -0.14060E-04  7188   0.369E-02
  88 F= -.62851933E+03 E0= -.62851933E+03  d E =-.211243E-03  mag=    20.0000
       N       E                     dE             d eps       ncg     rms          rms(c)
DAV:   1    -0.628519414562E+03   -0.71338E-04   -0.16118E-02 10800   0.247E-01    0.453E-02
DAV:   2    -0.628519441650E+03   -0.27088E-04   -0.49878E-04 11712   0.514E-02
  89 F= -.62851944E+03 E0= -.62851944E+03  d E =-.115448E-03  mag=    20.0000
       N       E                     dE             d eps       ncg     rms          rms(c)
DAV:   1    -0.628519565952E+03   -0.15139E-03   -0.32813E-02 10752   0.355E-01    0.858E-02
DAV:   2    -0.628519567661E+03   -0.17092E-05   -0.11016E-03 12972   0.746E-02    0.589E-02
DAV:   3    -0.628519558151E+03    0.95097E-05   -0.95575E-05  6744   0.301E-02
  90 F= -.62851956E+03 E0= -.62851956E+03  d E =-.116502E-03  mag=    20.0000
       N       E                     dE             d eps       ncg     rms          rms(c)
DAV:   1    -0.628519647667E+03   -0.80006E-04   -0.22047E-02 10776   0.285E-01    0.305E-02
DAV:   2    -0.628519702608E+03   -0.54941E-04   -0.60943E-04 11112   0.512E-02
  91 F= -.62851970E+03 E0= -.62851970E+03  d E =-.144456E-03  mag=    20.0000
       N       E                     dE             d eps       ncg     rms          rms(c)
DAV:   1    -0.628519812724E+03   -0.16506E-03   -0.19984E-02 10776   0.276E-01    0.587E-02
DAV:   2    -0.628519831098E+03   -0.18374E-04   -0.71129E-04 12468   0.617E-02
  92 F= -.62851983E+03 E0= -.62851983E+03  d E =-.128490E-03  mag=    20.0000
       N       E                     dE             d eps       ncg     rms          rms(c)
DAV:   1    -0.628519930054E+03   -0.11733E-03   -0.13547E-02 10848   0.233E-01    0.714E-02
DAV:   2    -0.628519889350E+03    0.40705E-04   -0.55312E-04 11472   0.591E-02
  93 F= -.62851989E+03 E0= -.62851989E+03  d E =-.582518E-04  mag=    20.0000
       N       E                     dE             d eps       ncg     rms          rms(c)
DAV:   1    -0.628519963187E+03   -0.33133E-04   -0.20143E-02 10800   0.273E-01    0.426E-02
DAV:   2    -0.628520005390E+03   -0.42203E-04   -0.65692E-04 11244   0.562E-02
  94 F= -.62852001E+03 E0= -.62852001E+03  d E =-.116041E-03  mag=    20.0000
       N       E                     dE             d eps       ncg     rms          rms(c)
DAV:   1    -0.628520051063E+03   -0.87876E-04   -0.73161E-03 10800   0.167E-01    0.355E-02
DAV:   2    -0.628520052476E+03   -0.14138E-05   -0.19719E-04  7164   0.369E-02
  95 F= -.62852005E+03 E0= -.62852005E+03  d E =-.470863E-04  mag=    20.0000
       N       E                     dE             d eps       ncg     rms          rms(c)
DAV:   1    -0.628520006661E+03    0.44402E-04   -0.65235E-03 10800   0.159E-01    0.708E-02
DAV:   2    -0.628519991589E+03    0.15072E-04   -0.37526E-04 10320   0.521E-02
  96 F= -.62851999E+03 E0= -.62851999E+03  d E =0.608873E-04  mag=    20.0000
       N       E                     dE             d eps       ncg     rms          rms(c)
DAV:   1    -0.628519984165E+03    0.22495E-04   -0.65407E-03 10584   0.152E-01    0.464E-02
DAV:   2    -0.628520017081E+03   -0.32915E-04   -0.37320E-04 10020   0.460E-02
  97 F= -.62852002E+03 E0= -.62852002E+03  d E =-.254913E-04  mag=    20.0000
       N       E                     dE             d eps       ncg     rms          rms(c)
DAV:   1    -0.628520039788E+03   -0.55623E-04   -0.70283E-02 10752   0.515E-01    0.838E-02
DAV:   2    -0.628520163010E+03   -0.12322E-03   -0.24945E-03 13764   0.120E-01    0.926E-02
DAV:   3    -0.628520150609E+03    0.12401E-04   -0.24151E-04  8232   0.363E-02
  98 F= -.62852015E+03 E0= -.62852015E+03  d E =-.133528E-03  mag=    20.0000
       N       E                     dE             d eps       ncg     rms          rms(c)
DAV:   1    -0.628520240606E+03   -0.77596E-04   -0.89004E-03 10584   0.181E-01    0.479E-02
DAV:   2    -0.628520282142E+03   -0.41536E-04   -0.74025E-04 13056   0.592E-02
  99 F= -.62852028E+03 E0= -.62852028E+03  d E =-.131533E-03  mag=    20.0000
       N       E                     dE             d eps       ncg     rms          rms(c)
DAV:   1    -0.628520484917E+03   -0.24431E-03   -0.45971E-02 10824   0.431E-01    0.119E-01
DAV:   2    -0.628520398587E+03    0.86330E-04   -0.18090E-03 14436   0.102E-01    0.842E-02
DAV:   3    -0.628520368175E+03    0.30412E-04   -0.19308E-04  8604   0.447E-02
 100 F= -.62852037E+03 E0= -.62852037E+03  d E =-.860336E-04  mag=    20.0000
       N       E                     dE             d eps       ncg     rms          rms(c)
DAV:   1    -0.628520475955E+03   -0.77368E-04   -0.10795E-02 10776   0.201E-01    0.324E-02
DAV:   2    -0.628520489261E+03   -0.13306E-04   -0.32133E-04  8232   0.442E-02
 101 F= -.62852049E+03 E0= -.62852049E+03  d E =-.121085E-03  mag=    20.0000
       N       E                     dE             d eps       ncg     rms          rms(c)
DAV:   1    -0.628520586228E+03   -0.11027E-03   -0.18581E-02 10776   0.266E-01    0.584E-02
DAV:   2    -0.628520583613E+03    0.26151E-05   -0.57394E-04 11892   0.589E-02
 102 F= -.62852058E+03 E0= -.62852058E+03  d E =-.943523E-04  mag=    20.0000
       N       E                     dE             d eps       ncg     rms          rms(c)
DAV:   1    -0.628520640996E+03   -0.54768E-04   -0.14088E-02 10764   0.233E-01    0.441E-02
DAV:   2    -0.628520656251E+03   -0.15255E-04   -0.55894E-04 10440   0.570E-02
 103 F= -.62852066E+03 E0= -.62852066E+03  d E =-.726378E-04  mag=    20.0000
       N       E                     dE             d eps       ncg     rms          rms(c)
DAV:   1    -0.628520737583E+03   -0.96587E-04   -0.21955E-02 10788   0.285E-01    0.352E-02
DAV:   2    -0.628520780629E+03   -0.43045E-04   -0.59835E-04 10836   0.512E-02
 104 F= -.62852078E+03 E0= -.62852078E+03  d E =-.124378E-03  mag=    20.0000
       N       E                     dE             d eps       ncg     rms          rms(c)
DAV:   1    -0.628520848712E+03   -0.11113E-03   -0.82011E-03 10836   0.175E-01    0.372E-02
DAV:   2    -0.628520847193E+03    0.15188E-05   -0.21312E-04  7068   0.345E-02
 105 F= -.62852085E+03 E0= -.62852085E+03  d E =-.665640E-04  mag=    20.0000
       N       E                     dE             d eps       ncg     rms          rms(c)
DAV:   1    -0.628520997743E+03   -0.14903E-03   -0.19856E-02 10836   0.282E-01    0.877E-02
DAV:   2    -0.628520947673E+03    0.50070E-04   -0.10556E-03 13704   0.768E-02    0.758E-02
DAV:   3    -0.628520922175E+03    0.25498E-04   -0.11079E-04  7008   0.335E-02
 106 F= -.62852092E+03 E0= -.62852092E+03  d E =-.749822E-04  mag=    20.0000
       N       E                     dE             d eps       ncg     rms          rms(c)
DAV:   1    -0.628520995679E+03   -0.48006E-04   -0.56202E-03 10872   0.148E-01    0.331E-02
DAV:   2    -0.628520992472E+03    0.32066E-05   -0.16891E-04  6984   0.334E-02
 107 F= -.62852099E+03 E0= -.62852099E+03  d E =-.702974E-04  mag=    20.0000
       N       E                     dE             d eps       ncg     rms          rms(c)
DAV:   1    -0.628520860406E+03    0.13527E-03   -0.40716E-02 10812   0.392E-01    0.111E-01
DAV:   2    -0.628520777287E+03    0.83119E-04   -0.17567E-03 13152   0.984E-02    0.850E-02
DAV:   3    -0.628520753218E+03    0.24069E-04   -0.18284E-04  7500   0.384E-02
 108 F= -.62852075E+03 E0= -.62852075E+03  d E =0.239255E-03  mag=    20.0000
       N       E                     dE             d eps       ncg     rms          rms(c)
DAV:   1    -0.628521597461E+03   -0.82017E-03   -0.12519E-01 10824   0.709E-01    0.229E-01
DAV:   2    -0.628521093242E+03    0.50422E-03   -0.64867E-03 13776   0.194E-01    0.169E-01
DAV:   3    -0.628521008038E+03    0.85204E-04   -0.89432E-04 13284   0.816E-02
 109 F= -.62852101E+03 E0= -.62852101E+03  d E =-.254820E-03  mag=    20.0000
       N       E                     dE             d eps       ncg     rms          rms(c)
DAV:   1    -0.628521145119E+03   -0.51877E-04   -0.20467E-02 10776   0.278E-01    0.514E-02
DAV:   2    -0.628521227491E+03   -0.82373E-04   -0.11172E-03 13632   0.729E-02    0.652E-02
DAV:   3    -0.628521211850E+03    0.15641E-04   -0.51974E-05  6132   0.213E-02
 110 F= -.62852121E+03 E0= -.62852121E+03  d E =-.203812E-03  mag=    20.0000
       N       E                     dE             d eps       ncg     rms          rms(c)
DAV:   1    -0.628521359892E+03   -0.13240E-03   -0.74384E-03 10848   0.177E-01    0.698E-02
DAV:   2    -0.628521293313E+03    0.66579E-04   -0.37766E-04  9456   0.503E-02
 111 F= -.62852129E+03 E0= -.62852129E+03  d E =-.814629E-04  mag=    20.0000
       N       E                     dE             d eps       ncg     rms          rms(c)
DAV:   1    -0.628521457007E+03   -0.97114E-04   -0.27550E-02 10824   0.338E-01    0.120E-01
DAV:   2    -0.628521307970E+03    0.14904E-03   -0.14026E-03 14880   0.895E-02    0.832E-02
DAV:   3    -0.628521277969E+03    0.30001E-04   -0.17668E-04  8544   0.432E-02
 112 F= -.62852128E+03 E0= -.62852128E+03  d E =0.153444E-04  mag=    20.0000
       N       E                     dE             d eps       ncg     rms          rms(c)
DAV:   1    -0.628521465723E+03   -0.15775E-03   -0.11779E-02 10800   0.217E-01    0.600E-02
DAV:   2    -0.628521435706E+03    0.30017E-04   -0.53618E-04 10536   0.563E-02
 113 F= -.62852144E+03 E0= -.62852144E+03  d E =-.157737E-03  mag=    20.0000
       N       E                     dE             d eps       ncg     rms          rms(c)
DAV:   1    -0.628521528842E+03   -0.63120E-04   -0.25813E-02 10800   0.321E-01    0.109E-01
DAV:   2    -0.628521424055E+03    0.10479E-03   -0.12019E-03 13716   0.913E-02    0.926E-02
DAV:   3    -0.628521403916E+03    0.20138E-04   -0.15457E-04  7728   0.362E-02
 114 F= -.62852140E+03 E0= -.62852140E+03  d E =0.317892E-04  mag=    20.0000
       N       E                     dE             d eps       ncg     rms          rms(c)
DAV:   1    -0.628521777812E+03   -0.35376E-03   -0.28613E-02 10848   0.346E-01    0.118E-01
DAV:   2    -0.628521605628E+03    0.17218E-03   -0.16046E-03 14688   0.995E-02    0.854E-02
DAV:   3    -0.628521575699E+03    0.29929E-04   -0.19103E-04  7848   0.446E-02
 115 F= -.62852158E+03 E0= -.62852158E+03  d E =-.171783E-03  mag=    20.0000
       N       E                     dE             d eps       ncg     rms          rms(c)
DAV:   1    -0.628521557746E+03    0.47882E-04   -0.98126E-02 10752   0.603E-01    0.817E-02
DAV:   2    -0.628521737222E+03   -0.17948E-03   -0.24749E-03 12576   0.988E-02    0.503E-02
DAV:   3    -0.628521728596E+03    0.86257E-05   -0.10565E-04  7092   0.266E-02
 116 F= -.62852173E+03 E0= -.62852173E+03  d E =-.152896E-03  mag=    20.0000
       N       E                     dE             d eps       ncg     rms          rms(c)
DAV:   1    -0.628521461471E+03    0.27575E-03   -0.52168E-02 10752   0.438E-01    0.426E-02
DAV:   2    -0.628521583292E+03   -0.12182E-03   -0.13797E-03 12240   0.740E-02    0.275E-02
DAV:   3    -0.628521580887E+03    0.24051E-05   -0.38224E-05  5988   0.176E-02
 117 F= -.62852158E+03 E0= -.62852158E+03  d E =0.147709E-03  mag=    20.0000
       N       E                     dE             d eps       ncg     rms          rms(c)
DAV:   1    -0.628521564512E+03    0.18780E-04   -0.78918E-02 10800   0.558E-01    0.133E-01
DAV:   2    -0.628521510336E+03    0.54176E-04   -0.28301E-03 14160   0.117E-01    0.928E-02
DAV:   3    -0.628521461899E+03    0.48437E-04   -0.23851E-04  9048   0.511E-02
 118 F= -.62852146E+03 E0= -.62852146E+03  d E =0.118988E-03  mag=    20.0000
       N       E                     dE             d eps       ncg     rms          rms(c)
DAV:   1    -0.628521111915E+03    0.39842E-03   -0.33872E-01 10752   0.111E+00    0.101E-01
DAV:   2    -0.628521879384E+03   -0.76747E-03   -0.85178E-03 12276   0.182E-01    0.894E-02
DAV:   3    -0.628521870828E+03    0.85561E-05   -0.39119E-04 10680   0.451E-02
 119 F= -.62852187E+03 E0= -.62852187E+03  d E =-.408929E-03  mag=    20.0000
       N       E                     dE             d eps       ncg     rms          rms(c)
DAV:   1    -0.628521715186E+03    0.16420E-03   -0.46952E-02 10752   0.429E-01    0.101E-01
DAV:   2    -0.628521723896E+03   -0.87100E-05   -0.19785E-03 14328   0.101E-01    0.747E-02
DAV:   3    -0.628521691418E+03    0.32478E-04   -0.18816E-04  8124   0.434E-02
 120 F= -.62852169E+03 E0= -.62852169E+03  d E =0.179410E-03  mag=    20.0000
       N       E                     dE             d eps       ncg     rms          rms(c)
DAV:   1    -0.628521888480E+03   -0.16458E-03   -0.63993E-02 10800   0.498E-01    0.100E-01
DAV:   2    -0.628521892514E+03   -0.40343E-05   -0.20835E-03 12996   0.105E-01    0.672E-02
DAV:   3    -0.628521876782E+03    0.15732E-04   -0.17316E-04  7296   0.395E-02
 121 F= -.62852188E+03 E0= -.62852188E+03  d E =-.185364E-03  mag=    20.0000
       N       E                     dE             d eps       ncg     rms          rms(c)
DAV:   1    -0.628521922749E+03   -0.30235E-04   -0.36797E-03 10776   0.119E-01    0.467E-02
DAV:   2    -0.628521914352E+03    0.83963E-05   -0.33573E-04  9252   0.454E-02
 122 F= -.62852191E+03 E0= -.62852191E+03  d E =-.375704E-04  mag=    20.0000
       N       E                     dE             d eps       ncg     rms          rms(c)
DAV:   1    -0.628521979238E+03   -0.56490E-04   -0.83312E-03 10776   0.180E-01    0.459E-02
DAV:   2    -0.628521976809E+03    0.24290E-05   -0.31537E-04  9156   0.483E-02
 123 F= -.62852198E+03 E0= -.62852198E+03  d E =-.624569E-04  mag=    20.0000
       N       E                     dE             d eps       ncg     rms          rms(c)
DAV:   1    -0.628521988918E+03   -0.96797E-05   -0.62365E-03 10440   0.154E-01    0.269E-02
DAV:   2    -0.628521998868E+03   -0.99497E-05   -0.18569E-04  6972   0.400E-02
 124 F= -.62852200E+03 E0= -.62852200E+03  d E =-.220584E-04  mag=    20.0000
       N       E                     dE             d eps       ncg     rms          rms(c)
DAV:   1    -0.628522037447E+03   -0.48529E-04   -0.30483E-02 10752   0.335E-01    0.564E-02
DAV:   2    -0.628522110973E+03   -0.73525E-04   -0.14009E-03 14364   0.944E-02    0.799E-02
DAV:   3    -0.628522094650E+03    0.16323E-04   -0.13586E-04  6708   0.286E-02
 125 F= -.62852209E+03 E0= -.62852209E+03  d E =-.957822E-04  mag=    20.0000
       N       E                     dE             d eps       ncg     rms          rms(c)
DAV:   1    -0.628522148700E+03   -0.37727E-04   -0.78357E-03 10416   0.171E-01    0.371E-02
DAV:   2    -0.628522184501E+03   -0.35801E-04   -0.56107E-04 11556   0.513E-02
 126 F= -.62852218E+03 E0= -.62852218E+03  d E =-.898511E-04  mag=    20.0000
       N       E                     dE             d eps       ncg     rms          rms(c)
DAV:   1    -0.628522258707E+03   -0.11001E-03   -0.30983E-02 10752   0.342E-01    0.569E-02
DAV:   2    -0.628522294010E+03   -0.35303E-04   -0.92092E-04 11928   0.647E-02
 127 F= -.62852229E+03 E0= -.62852229E+03  d E =-.109509E-03  mag=    20.0000
       N       E                     dE             d eps       ncg     rms          rms(c)
DAV:   1    -0.628522280464E+03   -0.21756E-04   -0.56927E-04  9852   0.515E-02    0.240E-02
DAV:   2    -0.628522278227E+03    0.22369E-05   -0.34275E-05  5952   0.189E-02
 128 F= -.62852228E+03 E0= -.62852228E+03  d E =0.157831E-04  mag=    20.0000
       N       E                     dE             d eps       ncg     rms          rms(c)
DAV:   1    -0.628522224362E+03    0.56102E-04   -0.51017E-03 10788   0.142E-01    0.366E-02
DAV:   2    -0.628522216307E+03    0.80550E-05   -0.17134E-04  7080   0.348E-02
 129 F= -.62852222E+03 E0= -.62852222E+03  d E =0.619201E-04  mag=    20.0000
       N       E                     dE             d eps       ncg     rms          rms(c)
DAV:   1    -0.628522272830E+03   -0.48469E-04   -0.18567E-02 10776   0.268E-01    0.672E-02
DAV:   2    -0.628522265694E+03    0.71366E-05   -0.60344E-04 11580   0.551E-02
 130 F= -.62852227E+03 E0= -.62852227E+03  d E =-.493873E-04  mag=    20.0000
       N       E                     dE             d eps       ncg     rms          rms(c)
DAV:   1    -0.628522389917E+03   -0.11709E-03   -0.17638E-02 10752   0.267E-01    0.718E-02
DAV:   2    -0.628522377861E+03    0.12056E-04   -0.98087E-04 13524   0.791E-02
 131 F= -.62852238E+03 E0= -.62852238E+03  d E =-.112167E-03  mag=    20.0000
       N       E                     dE             d eps       ncg     rms          rms(c)
DAV:   1    -0.628522522836E+03   -0.13292E-03   -0.10518E-02 11268   0.215E-01    0.112E-01
DAV:   2    -0.628522412826E+03    0.11001E-03   -0.10062E-03 13752   0.774E-02    0.868E-02
DAV:   3    -0.628522384041E+03    0.28785E-04   -0.14544E-04  7716   0.391E-02
 132 F= -.62852238E+03 E0= -.62852238E+03  d E =-.618047E-05  mag=    20.0000
       N       E                     dE             d eps       ncg     rms          rms(c)
DAV:   1    -0.628522396887E+03    0.15939E-04   -0.36425E-02 10752   0.368E-01    0.606E-02
DAV:   2    -0.628522488878E+03   -0.91991E-04   -0.15574E-03 14076   0.960E-02    0.871E-02
DAV:   3    -0.628522478203E+03    0.10675E-04   -0.13215E-04  6888   0.281E-02
 133 F= -.62852248E+03 E0= -.62852248E+03  d E =-.941614E-04  mag=    20.0000
       N       E                     dE             d eps       ncg     rms          rms(c)
DAV:   1    -0.628522532786E+03   -0.43908E-04   -0.89431E-03 10536   0.181E-01    0.476E-02
DAV:   2    -0.628522578018E+03   -0.45232E-04   -0.84792E-04 13692   0.634E-02
 134 F= -.62852258E+03 E0= -.62852258E+03  d E =-.998149E-04  mag=    20.0000
       N       E                     dE             d eps       ncg     rms          rms(c)
DAV:   1    -0.628522445655E+03    0.87131E-04   -0.15674E-02 10752   0.246E-01    0.419E-02
DAV:   2    -0.628522477367E+03   -0.31712E-04   -0.51338E-04 10224   0.495E-02
 135 F= -.62852248E+03 E0= -.62852248E+03  d E =0.100651E-03  mag=    20.0000
       N       E                     dE             d eps       ncg     rms          rms(c)
DAV:   1    -0.628522544512E+03   -0.98856E-04   -0.43241E-02 10752   0.402E-01    0.542E-02
DAV:   2    -0.628522618178E+03   -0.73667E-04   -0.11906E-03 11496   0.708E-02    0.342E-02
DAV:   3    -0.628522613851E+03    0.43269E-05   -0.47749E-05  6024   0.210E-02
 136 F= -.62852261E+03 E0= -.62852261E+03  d E =-.136485E-03  mag=    20.0000
       N       E                     dE             d eps       ncg     rms          rms(c)
DAV:   1    -0.628522660536E+03   -0.42357E-04   -0.15040E-02 10680   0.235E-01    0.294E-02
DAV:   2    -0.628522692303E+03   -0.31768E-04   -0.38198E-04  9576   0.419E-02
 137 F= -.62852269E+03 E0= -.62852269E+03  d E =-.784519E-04  mag=    20.0000
       N       E                     dE             d eps       ncg     rms          rms(c)
DAV:   1    -0.628522725212E+03   -0.64676E-04   -0.40890E-02 10752   0.390E-01    0.542E-02
DAV:   2    -0.628522821750E+03   -0.96538E-04   -0.11023E-03 12816   0.699E-02    0.407E-02
DAV:   3    -0.628522817862E+03    0.38880E-05   -0.56598E-05  6000   0.212E-02
 138 F= -.62852282E+03 E0= -.62852282E+03  d E =-.125559E-03  mag=    20.0000
       N       E                     dE             d eps       ncg     rms          rms(c)
DAV:   1    -0.628522820185E+03    0.15650E-05   -0.31705E-04  9156   0.357E-02    0.165E-02
DAV:   2    -0.628522820707E+03   -0.52204E-06   -0.18215E-05  5688   0.145E-02
 139 F= -.62852282E+03 E0= -.62852282E+03  d E =-.284506E-05  mag=    20.0000
       N       E                     dE             d eps       ncg     rms          rms(c)
DAV:   1    -0.628522867656E+03   -0.47471E-04   -0.22237E-02 10752   0.284E-01    0.291E-02
DAV:   2    -0.628522916270E+03   -0.48614E-04   -0.54259E-04 10548   0.457E-02
 140 F= -.62852292E+03 E0= -.62852292E+03  d E =-.955625E-04  mag=    20.0000
       N       E                     dE             d eps       ncg     rms          rms(c)
DAV:   1    -0.628522918288E+03   -0.50633E-04   -0.53530E-02 10752   0.442E-01    0.556E-02
DAV:   2    -0.628523055727E+03   -0.13744E-03   -0.12945E-03 12576   0.707E-02    0.356E-02
DAV:   3    -0.628523056558E+03   -0.83161E-06   -0.39485E-05  5760   0.151E-02
 141 F= -.62852306E+03 E0= -.62852306E+03  d E =-.140288E-03  mag=    20.0000
       N       E                     dE             d eps       ncg     rms          rms(c)
DAV:   1    -0.628522626147E+03    0.42958E-03   -0.96449E-02 10752   0.595E-01    0.580E-02
DAV:   2    -0.628522870337E+03   -0.24419E-03   -0.24462E-03 11652   0.962E-02    0.332E-02
DAV:   3    -0.628522870916E+03   -0.57946E-06   -0.53727E-05  5652   0.191E-02
 142 F= -.62852287E+03 E0= -.62852287E+03  d E =0.185642E-03  mag=    20.0000
       N       E                     dE             d eps       ncg     rms          rms(c)
DAV:   1    -0.628522844331E+03    0.26006E-04   -0.15942E-03  9696   0.763E-02    0.155E-02
DAV:   2    -0.628522845197E+03   -0.86649E-06   -0.42413E-05  5412   0.158E-02
 143 F= -.62852285E+03 E0= -.62852285E+03  d E =0.257188E-04  mag=    20.0000
       N       E                     dE             d eps       ncg     rms          rms(c)
DAV:   1    -0.628522725317E+03    0.11901E-03   -0.16921E-01 10752   0.786E-01    0.736E-02
DAV:   2    -0.628523112793E+03   -0.38748E-03   -0.42632E-03 11784   0.126E-01    0.505E-02
DAV:   3    -0.628523106454E+03    0.63390E-05   -0.12459E-04  6888   0.291E-02
 144 F= -.62852311E+03 E0= -.62852311E+03  d E =-.261257E-03  mag=    20.0000
       N       E                     dE             d eps       ncg     rms          rms(c)
DAV:   1    -0.628523104479E+03    0.83141E-05   -0.10214E-03  9576   0.644E-02    0.225E-02
DAV:   2    -0.628523103497E+03    0.98265E-06   -0.68662E-05  6060   0.271E-02
 145 F= -.62852310E+03 E0= -.62852310E+03  d E =0.295773E-05  mag=    20.0000
       N       E                     dE             d eps       ncg     rms          rms(c)
DAV:   1    -0.628523161034E+03   -0.56555E-04   -0.24405E-02 10752   0.303E-01    0.512E-02
DAV:   2    -0.628523197164E+03   -0.36129E-04   -0.73624E-04 12012   0.576E-02
 146 F= -.62852320E+03 E0= -.62852320E+03  d E =-.936669E-04  mag=    20.0000
       N       E                     dE             d eps       ncg     rms          rms(c)
DAV:   1    -0.628523231430E+03   -0.70396E-04   -0.90420E-03 10752   0.185E-01    0.323E-02
DAV:   2    -0.628523243779E+03   -0.12349E-04   -0.32701E-04  9600   0.455E-02
 147 F= -.62852324E+03 E0= -.62852324E+03  d E =-.466156E-04  mag=    20.0000
       N       E                     dE             d eps       ncg     rms          rms(c)
DAV:   1    -0.628523281599E+03   -0.50169E-04   -0.65830E-03 10500   0.157E-01    0.322E-02
DAV:   2    -0.628523286341E+03   -0.47423E-05   -0.23036E-04  7836   0.418E-02
 148 F= -.62852329E+03 E0= -.62852329E+03  d E =-.425620E-04  mag=    20.0000
       N       E                     dE             d eps       ncg     rms          rms(c)
DAV:   1    -0.628523314575E+03   -0.32976E-04   -0.17774E-03  9960   0.820E-02    0.235E-02
DAV:   2    -0.628523314935E+03   -0.36017E-06   -0.76399E-05  5988   0.255E-02
 149 F= -.62852331E+03 E0= -.62852331E+03  d E =-.285941E-04  mag=    20.0000
       N       E                     dE             d eps       ncg     rms          rms(c)
DAV:   1    -0.628523337440E+03   -0.22865E-04   -0.44336E-03 10464   0.131E-01    0.299E-02
DAV:   2    -0.628523335666E+03    0.17744E-05   -0.13872E-04  6468   0.337E-02
 150 F= -.62852334E+03 E0= -.62852334E+03  d E =-.207308E-04  mag=    20.0000
       N       E                     dE             d eps       ncg     rms          rms(c)
DAV:   1    -0.628523375098E+03   -0.37657E-04   -0.14843E-02 10728   0.234E-01    0.321E-02
DAV:   2    -0.628523409956E+03   -0.34859E-04   -0.56789E-04 11244   0.588E-02
 151 F= -.62852341E+03 E0= -.62852341E+03  d E =-.742902E-04  mag=    20.0000
       N       E                     dE             d eps       ncg     rms          rms(c)
DAV:   1    -0.628523444190E+03   -0.69092E-04   -0.47895E-03 10608   0.134E-01    0.270E-02
DAV:   2    -0.628523448776E+03   -0.45863E-05   -0.16165E-04  6720   0.324E-02
 152 F= -.62852345E+03 E0= -.62852345E+03  d E =-.388198E-04  mag=    20.0000
       N       E                     dE             d eps       ncg     rms          rms(c)
DAV:   1    -0.628523431937E+03    0.12252E-04   -0.82141E-04  9576   0.582E-02    0.156E-02
DAV:   2    -0.628523431770E+03    0.16707E-06   -0.32900E-05  5688   0.161E-02
 153 F= -.62852343E+03 E0= -.62852343E+03  d E =0.170058E-04  mag=    20.0000
       N       E                     dE             d eps       ncg     rms          rms(c)
DAV:   1    -0.628523526058E+03   -0.94120E-04   -0.16696E-02 10824   0.258E-01    0.738E-02
DAV:   2    -0.628523510173E+03    0.15885E-04   -0.88456E-04 12684   0.746E-02
 154 F= -.62852351E+03 E0= -.62852351E+03  d E =-.784025E-04  mag=    20.0000
       N       E                     dE             d eps       ncg     rms          rms(c)
DAV:   1    -0.628523502820E+03    0.23238E-04   -0.78694E-03 10536   0.170E-01    0.372E-02
DAV:   2    -0.628523514869E+03   -0.12049E-04   -0.45637E-04 11376   0.565E-02
 155 F= -.62852351E+03 E0= -.62852351E+03  d E =-.469639E-05  mag=    20.0000
       N       E                     dE             d eps       ncg     rms          rms(c)
DAV:   1    -0.628523579364E+03   -0.76544E-04   -0.11549E-02 10752   0.209E-01    0.381E-02
DAV:   2    -0.628523599014E+03   -0.19649E-04   -0.50406E-04 10764   0.532E-02
 156 F= -.62852360E+03 E0= -.62852360E+03  d E =-.841446E-04  mag=    20.0000
       N       E                     dE             d eps       ncg     rms          rms(c)
DAV:   1    -0.628523661408E+03   -0.82044E-04   -0.98229E-03 10824   0.199E-01    0.569E-02
DAV:   2    -0.628523630994E+03    0.30415E-04   -0.33503E-04  9504   0.484E-02
 157 F= -.62852363E+03 E0= -.62852363E+03  d E =-.319797E-04  mag=    20.0000
       N       E                     dE             d eps       ncg     rms          rms(c)
DAV:   1    -0.628523646238E+03    0.15170E-04   -0.40334E-03 10800   0.132E-01    0.647E-02
DAV:   2    -0.628523614030E+03    0.32209E-04   -0.44641E-04  9720   0.546E-02
 158 F= -.62852361E+03 E0= -.62852361E+03  d E =0.169636E-04  mag=    20.0000
       N       E                     dE             d eps       ncg     rms          rms(c)
DAV:   1    -0.628523704535E+03   -0.58297E-04   -0.93097E-03 10800   0.195E-01    0.578E-02
DAV:   2    -0.628523694941E+03    0.95940E-05   -0.63118E-04 12360   0.667E-02
 159 F= -.62852369E+03 E0= -.62852369E+03  d E =-.809113E-04  mag=    20.0000
       N       E                     dE             d eps       ncg     rms          rms(c)
DAV:   1    -0.628523781746E+03   -0.77211E-04   -0.24845E-02 10824   0.317E-01    0.940E-02
DAV:   2    -0.628523721824E+03    0.59922E-04   -0.11518E-03 13656   0.820E-02    0.708E-02
DAV:   3    -0.628523703745E+03    0.18080E-04   -0.12375E-04  7248   0.335E-02
 160 F= -.62852370E+03 E0= -.62852370E+03  d E =-.880341E-05  mag=    20.0000
       N       E                     dE             d eps       ncg     rms          rms(c)
DAV:   1    -0.628523768972E+03   -0.47147E-04   -0.93140E-03 10584   0.185E-01    0.244E-02
DAV:   2    -0.628523790129E+03   -0.21157E-04   -0.27007E-04  7704   0.372E-02
 161 F= -.62852379E+03 E0= -.62852379E+03  d E =-.863843E-04  mag=    20.0000
       N       E                     dE             d eps       ncg     rms          rms(c)
DAV:   1    -0.628523840040E+03   -0.71068E-04   -0.13109E-03 11028   0.799E-02    0.443E-02
DAV:   2    -0.628523806955E+03    0.33084E-04   -0.11416E-04  6000   0.309E-02
 162 F= -.62852381E+03 E0= -.62852381E+03  d E =-.168264E-04  mag=    20.0000
       N       E                     dE             d eps       ncg     rms          rms(c)
DAV:   1    -0.628523831029E+03    0.90100E-05   -0.12452E-02 10752   0.220E-01    0.609E-02
DAV:   2    -0.628523832741E+03   -0.17115E-05   -0.60430E-04 12240   0.675E-02
 163 F= -.62852383E+03 E0= -.62852383E+03  d E =-.257856E-04  mag=    20.0000
       N       E                     dE             d eps       ncg     rms          rms(c)
DAV:   1    -0.628524059498E+03   -0.22847E-03   -0.25179E-02 10800   0.327E-01    0.123E-01
DAV:   2    -0.628523952187E+03    0.10731E-03   -0.25723E-03 15348   0.130E-01    0.125E-01
DAV:   3    -0.628523870886E+03    0.81302E-04   -0.39779E-04 10404   0.521E-02
 164 F= -.62852387E+03 E0= -.62852387E+03  d E =-.381448E-04  mag=    20.0000
       N       E                     dE             d eps       ncg     rms          rms(c)
DAV:   1    -0.628523979494E+03   -0.27307E-04   -0.67476E-03 10824   0.170E-01    0.641E-02
DAV:   2    -0.628523967883E+03    0.11611E-04   -0.85245E-04 14004   0.739E-02
 165 F= -.62852397E+03 E0= -.62852397E+03  d E =-.969973E-04  mag=    20.0000
       N       E                     dE             d eps       ncg     rms          rms(c)
DAV:   1    -0.628523964707E+03    0.14787E-04   -0.20769E-02 10752   0.277E-01    0.364E-02
DAV:   2    -0.628524014898E+03   -0.50191E-04   -0.65013E-04 12024   0.566E-02
 166 F= -.62852401E+03 E0= -.62852401E+03  d E =-.470152E-04  mag=    20.0000
       N       E                     dE             d eps       ncg     rms          rms(c)
DAV:   1    -0.628524023771E+03   -0.59063E-04   -0.39643E-04  9348   0.424E-02    0.237E-02
DAV:   2    -0.628524022753E+03    0.10177E-05   -0.42969E-05  5808   0.178E-02
 167 F= -.62852402E+03 E0= -.62852402E+03  d E =-.785474E-05  mag=    20.0000
       N       E                     dE             d eps       ncg     rms          rms(c)
DAV:   1    -0.628524059120E+03   -0.35350E-04   -0.21095E-02 10752   0.277E-01    0.273E-02
DAV:   2    -0.628524105957E+03   -0.46836E-04   -0.50997E-04 10332   0.469E-02
 168 F= -.62852411E+03 E0= -.62852411E+03  d E =-.832038E-04  mag=    20.0000
       N       E                     dE             d eps       ncg     rms          rms(c)
DAV:   1    -0.628524136731E+03   -0.77610E-04   -0.12192E-02 10680   0.212E-01    0.271E-02
DAV:   2    -0.628524161754E+03   -0.25024E-04   -0.31235E-04  8388   0.400E-02
 169 F= -.62852416E+03 E0= -.62852416E+03  d E =-.557976E-04  mag=    20.0000
       N       E                     dE             d eps       ncg     rms          rms(c)
DAV:   1    -0.628524195546E+03   -0.58815E-04   -0.67740E-03 10440   0.157E-01    0.277E-02
DAV:   2    -0.628524205491E+03   -0.99455E-05   -0.16502E-04  6924   0.302E-02
 170 F= -.62852421E+03 E0= -.62852421E+03  d E =-.437367E-04  mag=    20.0000
       N       E                     dE             d eps       ncg     rms          rms(c)
DAV:   1    -0.628523797865E+03    0.39768E-03   -0.93989E-02 10752   0.589E-01    0.704E-02
DAV:   2    -0.628524033745E+03   -0.23588E-03   -0.23306E-03 11700   0.957E-02    0.379E-02
DAV:   3    -0.628524037104E+03   -0.33586E-05   -0.57855E-05  5676   0.218E-02
 171 F= -.62852404E+03 E0= -.62852404E+03  d E =0.168388E-03  mag=    20.0000
       N       E                     dE             d eps       ncg     rms          rms(c)
DAV:   1    -0.628523229202E+03    0.80454E-03   -0.49550E-01 10752   0.135E+00    0.172E-01
DAV:   2    -0.628524393085E+03   -0.11639E-02   -0.12354E-02 11748   0.218E-01    0.957E-02
DAV:   3    -0.628524421944E+03   -0.28860E-04   -0.56400E-04 12372   0.568E-02
 172 F= -.62852442E+03 E0= -.62852442E+03  d E =-.384841E-03  mag=    20.0000
       N       E                     dE             d eps       ncg     rms          rms(c)
DAV:   1    -0.628524443977E+03   -0.50892E-04   -0.11387E-02 10584   0.204E-01    0.389E-02
DAV:   2    -0.628524450467E+03   -0.64906E-05   -0.23297E-04  7536   0.344E-02
 173 F= -.62852445E+03 E0= -.62852445E+03  d E =-.285230E-04  mag=    20.0000
       N       E                     dE             d eps       ncg     rms          rms(c)
DAV:   1    -0.628524402845E+03    0.41132E-04   -0.11817E-02 10824   0.196E-01    0.111E-01
DAV:   2    -0.628524426497E+03   -0.23652E-04   -0.68746E-04 12372   0.713E-02
 174 F= -.62852443E+03 E0= -.62852443E+03  d E =0.239705E-04  mag=    20.0000
       N       E                     dE             d eps       ncg     rms          rms(c)
DAV:   1    -0.628524474139E+03   -0.71294E-04   -0.20581E-02 10800   0.285E-01    0.915E-02
DAV:   2    -0.628524457912E+03    0.16228E-04   -0.77336E-04 12360   0.658E-02
 175 F= -.62852446E+03 E0= -.62852446E+03  d E =-.314146E-04  mag=    20.0000
       N       E                     dE             d eps       ncg     rms          rms(c)
DAV:   1    -0.628524494831E+03   -0.20692E-04   -0.63909E-03 11016   0.159E-01    0.549E-02
DAV:   2    -0.628524490954E+03    0.38766E-05   -0.46351E-04 10320   0.522E-02
 176 F= -.62852449E+03 E0= -.62852449E+03  d E =-.330427E-04  mag=    20.0000
       N       E                     dE             d eps       ncg     rms          rms(c)
DAV:   1    -0.628524552661E+03   -0.57830E-04   -0.22403E-03 11052   0.989E-02    0.439E-02
DAV:   2    -0.628524532180E+03    0.20480E-04   -0.13465E-04  6396   0.333E-02
 177 F= -.62852453E+03 E0= -.62852453E+03  d E =-.412259E-04  mag=    20.0000
       N       E                     dE             d eps       ncg     rms          rms(c)
DAV:   1    -0.628524583345E+03   -0.30684E-04   -0.23748E-02 10824   0.322E-01    0.144E-01
DAV:   2    -0.628524307757E+03    0.27559E-03   -0.18892E-03 15588   0.109E-01    0.102E-01
DAV:   3    -0.628524263095E+03    0.44662E-04   -0.28453E-04  9768   0.505E-02
 178 F= -.62852426E+03 E0= -.62852426E+03  d E =0.269086E-03  mag=    20.0000
       N       E                     dE             d eps       ncg     rms          rms(c)
DAV:   1    -0.628525422131E+03   -0.11144E-02   -0.86238E-02 10824   0.606E-01    0.257E-01
DAV:   2    -0.628524568339E+03    0.85379E-03   -0.63992E-03 15588   0.197E-01    0.172E-01
DAV:   3    -0.628524450439E+03    0.11790E-03   -0.11657E-03 14496   0.962E-02    0.941E-02
DAV:   4    -0.628524412226E+03    0.38213E-04   -0.45981E-04 11004   0.466E-02
 179 F= -.62852441E+03 E0= -.62852441E+03  d E =-.149131E-03  mag=    20.0000
       N       E                     dE             d eps       ncg     rms          rms(c)
DAV:   1    -0.628524948843E+03   -0.49840E-03   -0.37321E-02 10824   0.396E-01    0.160E-01
DAV:   2    -0.628524607557E+03    0.34129E-03   -0.25197E-03 14988   0.127E-01    0.120E-01
DAV:   3    -0.628524570027E+03    0.37530E-04   -0.36408E-04 10584   0.531E-02
 180 F= -.62852457E+03 E0= -.62852457E+03  d E =-.157801E-03  mag=    20.0000
       N       E                     dE             d eps       ncg     rms          rms(c)
DAV:   1    -0.628524654305E+03   -0.46748E-04   -0.18561E-02 10824   0.272E-01    0.844E-02
DAV:   2    -0.628524622208E+03    0.32098E-04   -0.96342E-04 13308   0.852E-02
 181 F= -.62852462E+03 E0= -.62852462E+03  d E =-.521806E-04  mag=    20.0000
       N       E                     dE             d eps       ncg     rms          rms(c)
DAV:   1    -0.628524694050E+03   -0.39745E-04   -0.12145E-02 10920   0.210E-01    0.498E-02
DAV:   2    -0.628524708467E+03   -0.14416E-04   -0.61503E-04 12120   0.633E-02
 182 F= -.62852471E+03 E0= -.62852471E+03  d E =-.862590E-04  mag=    20.0000
       N       E                     dE             d eps       ncg     rms          rms(c)
DAV:   1    -0.628524869969E+03   -0.17592E-03   -0.20668E-02 10824   0.298E-01    0.127E-01
DAV:   2    -0.628524654084E+03    0.21589E-03   -0.12775E-03 13920   0.895E-02    0.898E-02
DAV:   3    -0.628524620083E+03    0.34000E-04   -0.17597E-04  8388   0.437E-02
 183 F= -.62852462E+03 E0= -.62852462E+03  d E =0.883831E-04  mag=    20.0000
       N       E                     dE             d eps       ncg     rms          rms(c)
DAV:   1    -0.628524826613E+03   -0.17253E-03   -0.94820E-03 10824   0.196E-01    0.662E-02
DAV:   2    -0.628524775777E+03    0.50836E-04   -0.54552E-04 10728   0.573E-02
 184 F= -.62852478E+03 E0= -.62852478E+03  d E =-.155694E-03  mag=    20.0000
       N       E                     dE             d eps       ncg     rms          rms(c)
DAV:   1    -0.628524858962E+03   -0.32349E-04   -0.22693E-02 10800   0.302E-01    0.119E-01
DAV:   2    -0.628524705445E+03    0.15352E-03   -0.11692E-03 13440   0.918E-02    0.948E-02
DAV:   3    -0.628524679664E+03    0.25782E-04   -0.17811E-04  8208   0.394E-02
 185 F= -.62852468E+03 E0= -.62852468E+03  d E =0.961135E-04  mag=    20.0000
       N       E                     dE             d eps       ncg     rms          rms(c)
DAV:   1    -0.628524962803E+03   -0.25736E-03   -0.15296E-02 10824   0.250E-01    0.875E-02
DAV:   2    -0.628524865568E+03    0.97235E-04   -0.90811E-04 12504   0.762E-02
 186 F= -.62852487E+03 E0= -.62852487E+03  d E =-.185905E-03  mag=    20.0000
       N       E                     dE             d eps       ncg     rms          rms(c)
DAV:   1    -0.628524876729E+03    0.86074E-04   -0.26287E-03 10716   0.103E-01    0.434E-02
DAV:   2    -0.628524868077E+03    0.86526E-05   -0.13934E-04  6408   0.303E-02
 187 F= -.62852487E+03 E0= -.62852487E+03  d E =-.250823E-05  mag=    20.0000
       N       E                     dE             d eps       ncg     rms          rms(c)
DAV:   1    -0.628524901018E+03   -0.24289E-04   -0.10056E-02 10788   0.199E-01    0.545E-02
DAV:   2    -0.628524884240E+03    0.16778E-04   -0.32186E-04  9924   0.453E-02
 188 F= -.62852488E+03 E0= -.62852488E+03  d E =-.161635E-04  mag=    20.0000
       N       E                     dE             d eps       ncg     rms          rms(c)
DAV:   1    -0.628524936987E+03   -0.35969E-04   -0.51802E-03 10848   0.142E-01    0.347E-02
DAV:   2    -0.628524931209E+03    0.57783E-05   -0.18280E-04  6480   0.376E-02
 189 F= -.62852493E+03 E0= -.62852493E+03  d E =-.469688E-04  mag=    20.0000
       N       E                     dE             d eps       ncg     rms          rms(c)
DAV:   1    -0.628524938529E+03   -0.15420E-05   -0.42098E-03 10344   0.126E-01    0.304E-02
DAV:   2    -0.628524938816E+03   -0.28651E-06   -0.12870E-04  7656   0.337E-02
 190 F= -.62852494E+03 E0= -.62852494E+03  d E =-.760684E-05  mag=    20.0000
       N       E                     dE             d eps       ncg     rms          rms(c)
DAV:   1    -0.628524881583E+03    0.56947E-04   -0.42212E-02 10776   0.399E-01    0.101E-01
DAV:   2    -0.628524964161E+03   -0.82578E-04   -0.29593E-03 14964   0.136E-01    0.139E-01
DAV:   3    -0.628524910951E+03    0.53210E-04   -0.32611E-04  9840   0.426E-02
 191 F= -.62852491E+03 E0= -.62852491E+03  d E =0.278652E-04  mag=    20.0000
       N       E                     dE             d eps       ncg     rms          rms(c)
DAV:   1    -0.628525025349E+03   -0.61188E-04   -0.19120E-02 10752   0.252E-01    0.725E-02
DAV:   2    -0.628525115602E+03   -0.90253E-04   -0.22897E-03 14928   0.113E-01    0.109E-01
DAV:   3    -0.628525045681E+03    0.69921E-04   -0.22755E-04  8412   0.401E-02
 192 F= -.62852505E+03 E0= -.62852505E+03  d E =-.134731E-03  mag=    20.0000
       N       E                     dE             d eps       ncg     rms          rms(c)
DAV:   1    -0.628525099758E+03    0.15844E-04   -0.17170E-02 10824   0.259E-01    0.820E-02
DAV:   2    -0.628525080270E+03    0.19488E-04   -0.10389E-03 14244   0.711E-02    0.562E-02
DAV:   3    -0.628525046646E+03    0.33625E-04   -0.11493E-04  7668   0.366E-02
 193 F= -.62852505E+03 E0= -.62852505E+03  d E =-.964188E-06  mag=    20.0000
       N       E                     dE             d eps       ncg     rms          rms(c)
DAV:   1    -0.628525126752E+03   -0.46482E-04   -0.83854E-03 10800   0.179E-01    0.403E-02
DAV:   2    -0.628525113909E+03    0.12843E-04   -0.28409E-04  8316   0.479E-02
 194 F= -.62852511E+03 E0= -.62852511E+03  d E =-.672632E-04  mag=    20.0000
       N       E                     dE             d eps       ncg     rms          rms(c)
DAV:   1    -0.628525188834E+03   -0.62081E-04   -0.50788E-03 10800   0.149E-01    0.746E-02
DAV:   2    -0.628525112982E+03    0.75851E-04   -0.31862E-04  9636   0.526E-02
 195 F= -.62852511E+03 E0= -.62852511E+03  d E =0.926302E-06  mag=    20.0000
       N       E                     dE             d eps       ncg     rms          rms(c)
DAV:   1    -0.628525160643E+03    0.28191E-04   -0.13324E-02 10752   0.225E-01    0.343E-02
DAV:   2    -0.628525191525E+03   -0.30882E-04   -0.46050E-04  9648   0.507E-02
 196 F= -.62852519E+03 E0= -.62852519E+03  d E =-.785423E-04  mag=    20.0000
