       N       E                     dE             d eps       ncg     rms          rms(c)
DAV:   1     0.550344775814E+04    0.55034E+04   -0.19760E+05 10752   0.125E+03
DAV:   2     0.481180753662E+03   -0.50223E+04   -0.46268E+04 11160   0.348E+02
DAV:   3    -0.726001015069E+03   -0.12072E+04   -0.11691E+04 12540   0.178E+02
DAV:   4    -0.826113457538E+03   -0.10011E+03   -0.98681E+02 16104   0.583E+01
DAV:   5    -0.829776985821E+03   -0.36635E+01   -0.36210E+01 17004   0.126E+01
DAV:   6    -0.829935154306E+03   -0.15817E+00   -0.15700E+00 16968   0.233E+00
DAV:   7    -0.829943428223E+03   -0.82739E-02   -0.82447E-02 17064   0.531E-01
DAV:   8    -0.829943954836E+03   -0.52661E-03   -0.52568E-03 13956   0.118E-01
DAV:   9    -0.829943992211E+03   -0.37375E-04   -0.37313E-04  9924   0.361E-02
DAV:  10    -0.829943996341E+03   -0.41301E-05   -0.41131E-05  8916   0.169E-02
DAV:  11    -0.829943997906E+03   -0.15648E-05   -0.15565E-05  8304   0.117E-02
DAV:  12    -0.829943998806E+03   -0.89984E-06   -0.89649E-06  8040   0.872E-03    0.114E+02
DAV:  13    -0.611518205309E+03    0.21843E+03   -0.12811E+03 15924   0.806E+01    0.737E+01
DAV:  14    -0.630768636036E+03   -0.19250E+02   -0.34796E+02 16668   0.413E+01    0.474E+01
DAV:  15    -0.628193665477E+03    0.25750E+01   -0.40349E+01 14796   0.139E+01    0.295E+01
DAV:  16    -0.630987956840E+03   -0.27943E+01   -0.34987E+01 16392   0.166E+01    0.205E+01
DAV:  17    -0.628486395246E+03    0.25016E+01   -0.12105E+01 15972   0.833E+00    0.867E+00
DAV:  18    -0.628242765483E+03    0.24363E+00   -0.40296E+00 15636   0.537E+00    0.469E+00
DAV:  19    -0.628096849980E+03    0.14592E+00   -0.12737E+00 15780   0.282E+00    0.121E+00
DAV:  20    -0.628115748544E+03   -0.18899E-01   -0.13428E-01 15576   0.112E+00    0.101E+00
DAV:  21    -0.628120885670E+03   -0.51371E-02   -0.43007E-02 15804   0.721E-01    0.550E-01
DAV:  22    -0.628120749566E+03    0.13610E-03   -0.90666E-03 15060   0.240E-01    0.255E-01
DAV:  23    -0.628120993133E+03   -0.24357E-03   -0.62651E-03 15360   0.159E-01    0.155E-01
DAV:  24    -0.628121004959E+03   -0.11826E-04   -0.15045E-03 14376   0.973E-02    0.100E-01
DAV:  25    -0.628120997046E+03    0.79132E-05   -0.73732E-04 13668   0.581E-02
   1 F= -.62812100E+03 E0= -.62812100E+03  d E =-.628121E+03  mag=    19.9966
       N       E                     dE             d eps       ncg     rms          rms(c)
DAV:   1    -0.629435782324E+03   -0.13148E+01   -0.13787E+02 11112   0.244E+01    0.104E+01
DAV:   2    -0.628683789002E+03    0.75199E+00   -0.13820E+01 15912   0.106E+01    0.104E+01
DAV:   3    -0.628345033636E+03    0.33876E+00   -0.13718E+00 14736   0.313E+00    0.487E+00
DAV:   4    -0.628262371923E+03    0.82662E-01   -0.30059E-01 15300   0.150E+00    0.264E+00
DAV:   5    -0.628254141414E+03    0.82305E-02   -0.12987E-01 15276   0.865E-01    0.124E+00
DAV:   6    -0.628249917247E+03    0.42242E-02   -0.36744E-02 15768   0.455E-01    0.421E-01
DAV:   7    -0.628250327304E+03   -0.41006E-03   -0.97381E-03 15000   0.246E-01    0.288E-01
DAV:   8    -0.628250489477E+03   -0.16217E-03   -0.14614E-03 14964   0.926E-02    0.176E-01
DAV:   9    -0.628250536224E+03   -0.46747E-04   -0.54614E-04 10620   0.561E-02
   2 F= -.62825054E+03 E0= -.62825054E+03  d E =-.129539E+00  mag=    19.9977
       N       E                     dE             d eps       ncg     rms          rms(c)
DAV:   1    -0.629015073564E+03   -0.76458E+00   -0.21432E+01 11292   0.102E+01    0.626E+00
DAV:   2    -0.628591720893E+03    0.42335E+00   -0.40103E+00 15900   0.524E+00    0.595E+00
DAV:   3    -0.628473606741E+03    0.11811E+00   -0.79531E-01 15744   0.221E+00    0.233E+00
DAV:   4    -0.628461548843E+03    0.12058E-01   -0.70449E-02 15036   0.571E-01    0.133E+00
DAV:   5    -0.628458462558E+03    0.30863E-02   -0.31244E-02 15420   0.487E-01    0.614E-01
DAV:   6    -0.628456207529E+03    0.22550E-02   -0.15394E-02 15600   0.274E-01    0.216E-01
DAV:   7    -0.628456318227E+03   -0.11070E-03   -0.31377E-03 14928   0.127E-01    0.172E-01
DAV:   8    -0.628456336173E+03   -0.17946E-04   -0.33274E-04  9588   0.501E-02
   3 F= -.62845634E+03 E0= -.62845634E+03  d E =-.205800E+00  mag=    19.9983
       N       E                     dE             d eps       ncg     rms          rms(c)
DAV:   1    -0.628456226550E+03    0.91677E-04   -0.13039E+01 10752   0.712E+00    0.164E+00
DAV:   2    -0.628498388700E+03   -0.42162E-01   -0.48158E-01 15012   0.178E+00    0.164E+00
DAV:   3    -0.628497164799E+03    0.12239E-02   -0.46070E-02 15144   0.587E-01    0.100E+00
DAV:   4    -0.628494511719E+03    0.26531E-02   -0.13228E-02 13944   0.228E-01    0.665E-01
DAV:   5    -0.628492463355E+03    0.20484E-02   -0.59865E-03 15084   0.273E-01    0.257E-01
DAV:   6    -0.628492397852E+03    0.65503E-04   -0.64310E-03 15168   0.182E-01    0.132E-01
DAV:   7    -0.628492327543E+03    0.70309E-04   -0.15318E-03 14760   0.922E-02    0.714E-02
DAV:   8    -0.628492312290E+03    0.15253E-04   -0.14228E-04  6852   0.374E-02
   4 F= -.62849231E+03 E0= -.62849231E+03  d E =-.359761E-01  mag=    19.9988
       N       E                     dE             d eps       ncg     rms          rms(c)
DAV:   1    -0.628575963245E+03   -0.83636E-01   -0.12745E+01 10836   0.724E+00    0.253E+00
DAV:   2    -0.628522148577E+03    0.53815E-01   -0.82830E-01 15576   0.228E+00    0.230E+00
DAV:   3    -0.628509298483E+03    0.12850E-01   -0.11042E-01 14904   0.864E-01    0.123E+00
DAV:   4    -0.628502695741E+03    0.66027E-02   -0.47670E-02 15348   0.475E-01    0.835E-01
DAV:   5    -0.628500446136E+03    0.22496E-02   -0.85199E-03 14676   0.310E-01    0.372E-01
DAV:   6    -0.628500343607E+03    0.10253E-03   -0.75581E-03 15924   0.208E-01    0.149E-01
DAV:   7    -0.628500284453E+03    0.59154E-04   -0.14619E-03 15900   0.132E-01    0.111E-01
DAV:   8    -0.628500309106E+03   -0.24653E-04   -0.55983E-04 11856   0.607E-02
   5 F= -.62850031E+03 E0= -.62850031E+03  d E =-.799682E-02  mag=    19.9991
       N       E                     dE             d eps       ncg     rms          rms(c)
DAV:   1    -0.628570874921E+03   -0.70590E-01   -0.55378E+00 10848   0.479E+00    0.154E+00
DAV:   2    -0.628552652480E+03    0.18222E-01   -0.27683E-01 15120   0.129E+00    0.121E+00
DAV:   3    -0.628548835523E+03    0.38170E-02   -0.35449E-02 14904   0.532E-01    0.631E-01
DAV:   4    -0.628546657051E+03    0.21785E-02   -0.16531E-02 15624   0.295E-01    0.349E-01
DAV:   5    -0.628545985788E+03    0.67126E-03   -0.33336E-03 14748   0.162E-01    0.180E-01
DAV:   6    -0.628545947901E+03    0.37887E-04   -0.20938E-03 16032   0.110E-01    0.113E-01
DAV:   7    -0.628545902564E+03    0.45337E-04   -0.40064E-04 10896   0.628E-02
   6 F= -.62854590E+03 E0= -.62854590E+03  d E =-.455935E-01  mag=    19.9993
       N       E                     dE             d eps       ncg     rms          rms(c)
DAV:   1    -0.628554980164E+03   -0.90323E-02   -0.29931E+00 10788   0.346E+00    0.758E-01
DAV:   2    -0.628559588087E+03   -0.46079E-02   -0.11833E-01 14832   0.798E-01    0.618E-01
DAV:   3    -0.628558762741E+03    0.82535E-03   -0.12155E-02 14880   0.298E-01    0.327E-01
DAV:   4    -0.628558423356E+03    0.33938E-03   -0.10759E-03 13656   0.946E-02    0.220E-01
DAV:   5    -0.628558353787E+03    0.69569E-04   -0.92317E-04 14016   0.736E-02
   7 F= -.62855835E+03 E0= -.62855835E+03  d E =-.124512E-01  mag=    19.9995
       N       E                     dE             d eps       ncg     rms          rms(c)
DAV:   1    -0.628564304478E+03   -0.58811E-02   -0.39930E-01 11160   0.129E+00    0.422E-01
DAV:   2    -0.628563627444E+03    0.67703E-03   -0.28113E-02 15588   0.421E-01    0.419E-01
DAV:   3    -0.628562990084E+03    0.63736E-03   -0.45393E-03 14832   0.166E-01    0.202E-01
DAV:   4    -0.628562910020E+03    0.80064E-04   -0.11183E-03 13836   0.728E-02    0.127E-01
DAV:   5    -0.628562842502E+03    0.67518E-04   -0.22433E-04  9168   0.512E-02
   8 F= -.62856284E+03 E0= -.62856284E+03  d E =-.448871E-02  mag=    19.9996
       N       E                     dE             d eps       ncg     rms          rms(c)
DAV:   1    -0.628566273629E+03   -0.33636E-02   -0.14591E+00 10752   0.240E+00    0.282E-01
DAV:   2    -0.628570450520E+03   -0.41769E-02   -0.44801E-02 13956   0.452E-01    0.259E-01
DAV:   3    -0.628570347526E+03    0.10299E-03   -0.20559E-03 14412   0.117E-01    0.143E-01
DAV:   4    -0.628570236993E+03    0.11053E-03   -0.28999E-04  9168   0.534E-02    0.110E-01
DAV:   5    -0.628570172288E+03    0.64705E-04   -0.41481E-04  9936   0.743E-02
   9 F= -.62857017E+03 E0= -.62857017E+03  d E =-.732979E-02  mag=    19.9996
       N       E                     dE             d eps       ncg     rms          rms(c)
DAV:   1    -0.628572625904E+03   -0.23889E-02   -0.15600E+00 10800   0.247E+00    0.343E-01
DAV:   2    -0.628576925702E+03   -0.42998E-02   -0.45252E-02 13140   0.440E-01    0.243E-01
DAV:   3    -0.628577074829E+03   -0.14913E-03   -0.25775E-03 14892   0.110E-01    0.165E-01
DAV:   4    -0.628576958650E+03    0.11618E-03   -0.28874E-04  8580   0.461E-02    0.111E-01
DAV:   5    -0.628576903466E+03    0.55184E-04   -0.56908E-04 11916   0.714E-02
  10 F= -.62857690E+03 E0= -.62857690E+03  d E =-.673118E-02  mag=    19.9997
       N       E                     dE             d eps       ncg     rms          rms(c)
DAV:   1    -0.628578619857E+03   -0.16612E-02   -0.33223E-01 10848   0.115E+00    0.167E-01
DAV:   2    -0.628579527665E+03   -0.90781E-03   -0.12380E-02 14412   0.260E-01    0.197E-01
DAV:   3    -0.628579453471E+03    0.74194E-04   -0.92468E-04 13104   0.759E-02
  11 F= -.62857945E+03 E0= -.62857945E+03  d E =-.255000E-02  mag=    19.9997
       N       E                     dE             d eps       ncg     rms          rms(c)
DAV:   1    -0.628581660984E+03   -0.21333E-02   -0.47872E-01 10812   0.137E+00    0.190E-01
DAV:   2    -0.628582718633E+03   -0.10576E-02   -0.14533E-02 13860   0.252E-01    0.135E-01
DAV:   3    -0.628582610233E+03    0.10840E-03   -0.81598E-04 13476   0.828E-02    0.680E-02
DAV:   4    -0.628582567701E+03    0.42532E-04   -0.16534E-04  7152   0.396E-02
  12 F= -.62858257E+03 E0= -.62858257E+03  d E =-.311423E-02  mag=    19.9998
       N       E                     dE             d eps       ncg     rms          rms(c)
DAV:   1    -0.628584093335E+03   -0.14831E-02   -0.16181E+00 10752   0.252E+00    0.337E-01
DAV:   2    -0.628587890081E+03   -0.37967E-02   -0.48615E-02 13836   0.461E-01    0.273E-01
DAV:   3    -0.628587836424E+03    0.53657E-04   -0.26289E-03 14436   0.118E-01    0.172E-01
DAV:   4    -0.628587670230E+03    0.16619E-03   -0.78872E-04 12732   0.804E-02    0.106E-01
DAV:   5    -0.628587637040E+03    0.33189E-04   -0.51066E-04 11868   0.643E-02
  13 F= -.62858764E+03 E0= -.62858764E+03  d E =-.506934E-02  mag=    19.9998
       N       E                     dE             d eps       ncg     rms          rms(c)
DAV:   1    -0.628588889753E+03   -0.12195E-02   -0.33111E-01 10812   0.115E+00    0.179E-01
DAV:   2    -0.628589605172E+03   -0.71542E-03   -0.11237E-02 13548   0.234E-01    0.150E-01
DAV:   3    -0.628589573720E+03    0.31452E-04   -0.72662E-04 12516   0.701E-02
  14 F= -.62858957E+03 E0= -.62858957E+03  d E =-.193668E-02  mag=    19.9998
       N       E                     dE             d eps       ncg     rms          rms(c)
DAV:   1    -0.628591007389E+03   -0.14022E-02   -0.38591E-01 10812   0.124E+00    0.223E-01
DAV:   2    -0.628591473772E+03   -0.46638E-03   -0.12071E-02 13932   0.235E-01    0.146E-01
DAV:   3    -0.628591377454E+03    0.96318E-04   -0.82786E-04 13452   0.869E-02
  15 F= -.62859138E+03 E0= -.62859138E+03  d E =-.180373E-02  mag=    19.9998
       N       E                     dE             d eps       ncg     rms          rms(c)
DAV:   1    -0.628593031666E+03   -0.15579E-02   -0.13339E-01 10932   0.733E-01    0.195E-01
DAV:   2    -0.628592852537E+03    0.17913E-03   -0.58989E-03 15372   0.185E-01    0.173E-01
DAV:   3    -0.628592782639E+03    0.69898E-04   -0.70537E-04 12756   0.677E-02
  16 F= -.62859278E+03 E0= -.62859278E+03  d E =-.140518E-02  mag=    19.9999
       N       E                     dE             d eps       ncg     rms          rms(c)
DAV:   1    -0.628593245523E+03   -0.39299E-03   -0.91380E-01 10752   0.190E+00    0.298E-01
DAV:   2    -0.628595423702E+03   -0.21782E-02   -0.27215E-02 13668   0.355E-01    0.224E-01
DAV:   3    -0.628595378986E+03    0.44717E-04   -0.13207E-03 14472   0.951E-02    0.155E-01
DAV:   4    -0.628595285017E+03    0.93969E-04   -0.12200E-04  6612   0.392E-02
  17 F= -.62859529E+03 E0= -.62859529E+03  d E =-.250238E-02  mag=    19.9999
       N       E                     dE             d eps       ncg     rms          rms(c)
DAV:   1    -0.628593742374E+03    0.16366E-02   -0.18188E-01 10800   0.853E-01    0.122E-01
DAV:   2    -0.628594287867E+03   -0.54549E-03   -0.64642E-03 13944   0.172E-01    0.108E-01
DAV:   3    -0.628594251152E+03    0.36715E-04   -0.21120E-04  8316   0.455E-02
  18 F= -.62859425E+03 E0= -.62859425E+03  d E =0.103386E-02  mag=    19.9999
       N       E                     dE             d eps       ncg     rms          rms(c)
DAV:   1    -0.628594350689E+03   -0.62821E-04   -0.58100E-01 10860   0.157E+00    0.499E-01
DAV:   2    -0.628592612547E+03    0.17381E-02   -0.27108E-02 14868   0.396E-01    0.336E-01
DAV:   3    -0.628592106342E+03    0.50621E-03   -0.42807E-03 14880   0.199E-01    0.245E-01
DAV:   4    -0.628591949234E+03    0.15711E-03   -0.30416E-04  9072   0.488E-02    0.139E-01
DAV:   5    -0.628591903367E+03    0.45867E-04   -0.41399E-04  9432   0.450E-02
  19 F= -.62859190E+03 E0= -.62859190E+03  d E =0.234779E-02  mag=    19.9999
       N       E                     dE             d eps       ncg     rms          rms(c)
DAV:   1    -0.628593717923E+03   -0.17687E-02   -0.12552E+00 10752   0.226E+00    0.366E-01
DAV:   2    -0.628595956359E+03   -0.22384E-02   -0.41988E-02 14124   0.472E-01    0.290E-01
DAV:   3    -0.628595649709E+03    0.30665E-03   -0.26277E-03 14928   0.155E-01    0.218E-01
DAV:   4    -0.628595550608E+03    0.99101E-04   -0.20100E-04  8256   0.468E-02
  20 F= -.62859555E+03 E0= -.62859555E+03  d E =-.364724E-02  mag=    19.9999
       N       E                     dE             d eps       ncg     rms          rms(c)
DAV:   1    -0.628596658150E+03   -0.10084E-02   -0.26259E-01 10800   0.103E+00    0.257E-01
DAV:   2    -0.628596619970E+03    0.38180E-04   -0.85740E-03 14256   0.203E-01    0.200E-01
DAV:   3    -0.628596516849E+03    0.10312E-03   -0.73947E-04 13128   0.729E-02    0.124E-01
DAV:   4    -0.628596471700E+03    0.45149E-04   -0.28654E-04  9084   0.450E-02
  21 F= -.62859647E+03 E0= -.62859647E+03  d E =-.921092E-03  mag=    19.9999
       N       E                     dE             d eps       ncg     rms          rms(c)
DAV:   1    -0.628596777657E+03   -0.26081E-03   -0.85405E-03 11088   0.186E-01    0.607E-02
DAV:   2    -0.628596752798E+03    0.24860E-04   -0.34259E-04  8820   0.471E-02
  22 F= -.62859675E+03 E0= -.62859675E+03  d E =-.281098E-03  mag=    19.9999
       N       E                     dE             d eps       ncg     rms          rms(c)
DAV:   1    -0.628597485688E+03   -0.70803E-03   -0.10953E-01 10812   0.654E-01    0.163E-01
DAV:   2    -0.628597418602E+03    0.67086E-04   -0.47073E-03 13620   0.162E-01    0.136E-01
DAV:   3    -0.628597376209E+03    0.42393E-04   -0.51098E-04 12072   0.582E-02
  23 F= -.62859738E+03 E0= -.62859738E+03  d E =-.623411E-03  mag=    19.9999
       N       E                     dE             d eps       ncg     rms          rms(c)
DAV:   1    -0.628598849516E+03   -0.14309E-02   -0.42615E-01 10752   0.131E+00    0.310E-01
DAV:   2    -0.628598832265E+03    0.17252E-04   -0.16964E-02 14412   0.285E-01    0.211E-01
DAV:   3    -0.628598622793E+03    0.20947E-03   -0.18978E-03 14664   0.129E-01    0.102E-01
DAV:   4    -0.628598548356E+03    0.74437E-04   -0.29083E-04  8832   0.477E-02
  24 F= -.62859855E+03 E0= -.62859855E+03  d E =-.117215E-02  mag=    20.0000
       N       E                     dE             d eps       ncg     rms          rms(c)
DAV:   1    -0.628599800810E+03   -0.11780E-02   -0.34191E-02 11148   0.394E-01    0.212E-01
DAV:   2    -0.628599200308E+03    0.60050E-03   -0.39791E-03 15732   0.152E-01    0.139E-01
DAV:   3    -0.628599105239E+03    0.95069E-04   -0.87983E-04 13968   0.841E-02
  25 F= -.62859911E+03 E0= -.62859911E+03  d E =-.556883E-03  mag=    20.0000
       N       E                     dE             d eps       ncg     rms          rms(c)
DAV:   1    -0.628600040713E+03   -0.84041E-03   -0.26056E-01 10764   0.104E+00    0.286E-01
DAV:   2    -0.628599939065E+03    0.10165E-03   -0.12514E-02 15180   0.263E-01    0.239E-01
DAV:   3    -0.628599731686E+03    0.20738E-03   -0.14929E-03 14772   0.107E-01    0.123E-01
DAV:   4    -0.628599683266E+03    0.48420E-04   -0.12828E-04  6756   0.403E-02
  26 F= -.62859968E+03 E0= -.62859968E+03  d E =-.578027E-03  mag=    20.0000
       N       E                     dE             d eps       ncg     rms          rms(c)
DAV:   1    -0.628600213706E+03   -0.48202E-03   -0.17396E-02 10980   0.268E-01    0.140E-01
DAV:   2    -0.628600025468E+03    0.18824E-03   -0.25610E-03 15648   0.131E-01    0.139E-01
DAV:   3    -0.628599940376E+03    0.85092E-04   -0.44260E-04 10704   0.562E-02
  27 F= -.62859994E+03 E0= -.62859994E+03  d E =-.257110E-03  mag=    20.0000
       N       E                     dE             d eps       ncg     rms          rms(c)
DAV:   1    -0.628600776411E+03   -0.75094E-03   -0.27056E-01 10872   0.105E+00    0.270E-01
DAV:   2    -0.628600502997E+03    0.27341E-03   -0.11108E-02 13368   0.230E-01    0.184E-01
DAV:   3    -0.628600390030E+03    0.11297E-03   -0.88572E-04 13620   0.863E-02    0.105E-01
DAV:   4    -0.628600331824E+03    0.58206E-04   -0.49446E-04 11508   0.514E-02
  28 F= -.62860033E+03 E0= -.62860033E+03  d E =-.391448E-03  mag=    20.0000
       N       E                     dE             d eps       ncg     rms          rms(c)
DAV:   1    -0.628601076845E+03   -0.68681E-03   -0.44527E-02 10812   0.414E-01    0.133E-01
DAV:   2    -0.628600933353E+03    0.14349E-03   -0.23932E-03 14244   0.125E-01    0.127E-01
DAV:   3    -0.628600913669E+03    0.19685E-04   -0.35309E-04 10236   0.450E-02
  29 F= -.62860091E+03 E0= -.62860091E+03  d E =-.581845E-03  mag=    20.0000
       N       E                     dE             d eps       ncg     rms          rms(c)
DAV:   1    -0.628601194378E+03   -0.26102E-03   -0.10103E-01 10752   0.635E-01    0.154E-01
DAV:   2    -0.628601337701E+03   -0.14332E-03   -0.33398E-03 14844   0.130E-01    0.107E-01
DAV:   3    -0.628601313438E+03    0.24263E-04   -0.15416E-04  7644   0.439E-02
  30 F= -.62860131E+03 E0= -.62860131E+03  d E =-.399769E-03  mag=    20.0000
       N       E                     dE             d eps       ncg     rms          rms(c)
DAV:   1    -0.628601405358E+03   -0.67658E-04   -0.45023E-03 10884   0.134E-01    0.629E-02
DAV:   2    -0.628601407518E+03   -0.21599E-05   -0.10183E-04  6000   0.318E-02
  31 F= -.62860141E+03 E0= -.62860141E+03  d E =-.940805E-04  mag=    20.0000
       N       E                     dE             d eps       ncg     rms          rms(c)
DAV:   1    -0.628601549448E+03   -0.14409E-03   -0.78703E-02 10752   0.560E-01    0.706E-02
DAV:   2    -0.628601719212E+03   -0.16976E-03   -0.22314E-03 13476   0.117E-01    0.682E-02
DAV:   3    -0.628601713796E+03    0.54165E-05   -0.13252E-04  6624   0.346E-02
  32 F= -.62860171E+03 E0= -.62860171E+03  d E =-.306278E-03  mag=    20.0000
       N       E                     dE             d eps       ncg     rms          rms(c)
DAV:   1    -0.628602095499E+03   -0.37629E-03   -0.43709E-02 11088   0.437E-01    0.201E-01
DAV:   2    -0.628601627840E+03    0.46766E-03   -0.30525E-03 15252   0.124E-01    0.109E-01
DAV:   3    -0.628601571405E+03    0.56435E-04   -0.55429E-04 11616   0.739E-02
  33 F= -.62860157E+03 E0= -.62860157E+03  d E =0.142391E-03  mag=    20.0000
       N       E                     dE             d eps       ncg     rms          rms(c)
DAV:   1    -0.628601822850E+03   -0.19501E-03   -0.17683E-02 10800   0.251E-01    0.728E-02
DAV:   2    -0.628601805365E+03    0.17485E-04   -0.11272E-03 14244   0.853E-02    0.778E-02
DAV:   3    -0.628601788267E+03    0.17099E-04   -0.14013E-04  6504   0.309E-02
  34 F= -.62860179E+03 E0= -.62860179E+03  d E =-.216862E-03  mag=    20.0000
       N       E                     dE             d eps       ncg     rms          rms(c)
DAV:   1    -0.628602162680E+03   -0.35731E-03   -0.80085E-02 10752   0.567E-01    0.160E-01
DAV:   2    -0.628602075643E+03    0.87037E-04   -0.30845E-03 14832   0.131E-01    0.108E-01
DAV:   3    -0.628602051156E+03    0.24487E-04   -0.44286E-04 11556   0.550E-02
  35 F= -.62860205E+03 E0= -.62860205E+03  d E =-.262890E-03  mag=    20.0000
       N       E                     dE             d eps       ncg     rms          rms(c)
DAV:   1    -0.628602347883E+03   -0.27224E-03   -0.34979E-02 10848   0.372E-01    0.774E-02
DAV:   2    -0.628602363467E+03   -0.15584E-04   -0.13097E-03 12972   0.899E-02    0.672E-02
DAV:   3    -0.628602355267E+03    0.81993E-05   -0.96778E-05  6360   0.298E-02
  36 F= -.62860236E+03 E0= -.62860236E+03  d E =-.304111E-03  mag=    20.0000
       N       E                     dE             d eps       ncg     rms          rms(c)
DAV:   1    -0.628602481505E+03   -0.11804E-03   -0.61942E-02 10764   0.497E-01    0.984E-02
DAV:   2    -0.628602494527E+03   -0.13021E-04   -0.19733E-03 13080   0.107E-01    0.752E-02
DAV:   3    -0.628602477044E+03    0.17482E-04   -0.14522E-04  7356   0.365E-02
  37 F= -.62860248E+03 E0= -.62860248E+03  d E =-.121777E-03  mag=    20.0000
       N       E                     dE             d eps       ncg     rms          rms(c)
DAV:   1    -0.628602721686E+03   -0.22716E-03   -0.85590E-03 11364   0.199E-01    0.116E-01
DAV:   2    -0.628602568119E+03    0.15357E-03   -0.13818E-03 15336   0.884E-02    0.912E-02
DAV:   3    -0.628602515604E+03    0.52516E-04   -0.20333E-04  8676   0.442E-02
  38 F= -.62860252E+03 E0= -.62860252E+03  d E =-.385592E-04  mag=    20.0000
       N       E                     dE             d eps       ncg     rms          rms(c)
DAV:   1    -0.628603089179E+03   -0.52106E-03   -0.18783E-02 10872   0.289E-01    0.142E-01
DAV:   2    -0.628602830533E+03    0.25865E-03   -0.17954E-03 15864   0.107E-01    0.975E-02
DAV:   3    -0.628602789147E+03    0.41386E-04   -0.34904E-04 10440   0.519E-02
  39 F= -.62860279E+03 E0= -.62860279E+03  d E =-.273543E-03  mag=    20.0000
       N       E                     dE             d eps       ncg     rms          rms(c)
DAV:   1    -0.628602964548E+03   -0.13401E-03   -0.71928E-02 10752   0.537E-01    0.127E-01
DAV:   2    -0.628603030940E+03   -0.66392E-04   -0.24089E-03 14340   0.112E-01    0.793E-02
DAV:   3    -0.628603016688E+03    0.14253E-04   -0.15946E-04  7764   0.415E-02
  40 F= -.62860302E+03 E0= -.62860302E+03  d E =-.227541E-03  mag=    20.0000
       N       E                     dE             d eps       ncg     rms          rms(c)
DAV:   1    -0.628603032782E+03   -0.18419E-05   -0.18540E-03 11088   0.889E-02    0.478E-02
DAV:   2    -0.628603017829E+03    0.14953E-04   -0.10424E-04  6096   0.287E-02
  41 F= -.62860302E+03 E0= -.62860302E+03  d E =-.114160E-05  mag=    20.0000
       N       E                     dE             d eps       ncg     rms          rms(c)
DAV:   1    -0.628603108707E+03   -0.75924E-04   -0.92800E-02 10776   0.617E-01    0.135E-01
DAV:   2    -0.628603135374E+03   -0.26668E-04   -0.34685E-03 14508   0.135E-01    0.973E-02
DAV:   3    -0.628603088744E+03    0.46631E-04   -0.27221E-04  9600   0.529E-02
  42 F= -.62860309E+03 E0= -.62860309E+03  d E =-.709144E-04  mag=    20.0000
       N       E                     dE             d eps       ncg     rms          rms(c)
DAV:   1    -0.628603039931E+03    0.95444E-04   -0.20816E-01 10812   0.926E-01    0.236E-01
DAV:   2    -0.628602930983E+03    0.10895E-03   -0.80538E-03 14340   0.205E-01    0.166E-01
DAV:   3    -0.628602832986E+03    0.97997E-04   -0.97827E-04 13836   0.887E-02
  43 F= -.62860283E+03 E0= -.62860283E+03  d E =0.255758E-03  mag=    20.0000
       N       E                     dE             d eps       ncg     rms          rms(c)
DAV:   1    -0.628605872971E+03   -0.29420E-02   -0.78936E-01 10848   0.182E+00    0.538E-01
DAV:   2    -0.628603557880E+03    0.23151E-02   -0.36223E-02 15012   0.436E-01    0.332E-01
DAV:   3    -0.628603080279E+03    0.47760E-03   -0.56444E-03 15084   0.211E-01    0.191E-01
DAV:   4    -0.628602903521E+03    0.17676E-03   -0.96110E-04 14172   0.759E-02    0.104E-01
DAV:   5    -0.628602855247E+03    0.48274E-04   -0.18259E-04  7200   0.413E-02
  44 F= -.62860286E+03 E0= -.62860286E+03  d E =-.222608E-04  mag=    20.0000
       N       E                     dE             d eps       ncg     rms          rms(c)
DAV:   1    -0.628603332620E+03   -0.42910E-03   -0.11705E-01 10752   0.681E-01    0.170E-01
DAV:   2    -0.628603248635E+03    0.83985E-04   -0.45795E-03 14616   0.170E-01    0.147E-01
DAV:   3    -0.628603230344E+03    0.18291E-04   -0.69130E-04 12492   0.612E-02
  45 F= -.62860323E+03 E0= -.62860323E+03  d E =-.375097E-03  mag=    20.0000
       N       E                     dE             d eps       ncg     rms          rms(c)
DAV:   1    -0.628603362239E+03   -0.11360E-03   -0.36820E-02 10752   0.372E-01    0.726E-02
DAV:   2    -0.628603497867E+03   -0.13563E-03   -0.18202E-03 14352   0.104E-01    0.967E-02
DAV:   3    -0.628603466905E+03    0.30962E-04   -0.10362E-04  6072   0.313E-02
  46 F= -.62860347E+03 E0= -.62860347E+03  d E =-.236560E-03  mag=    20.0000
       N       E                     dE             d eps       ncg     rms          rms(c)
DAV:   1    -0.628603613553E+03   -0.11569E-03   -0.44947E-02 10788   0.426E-01    0.992E-02
DAV:   2    -0.628603590851E+03    0.22702E-04   -0.15012E-03 13164   0.961E-02    0.668E-02
DAV:   3    -0.628603568915E+03    0.21936E-04   -0.12092E-04  7860   0.392E-02
  47 F= -.62860357E+03 E0= -.62860357E+03  d E =-.102010E-03  mag=    20.0000
       N       E                     dE             d eps       ncg     rms          rms(c)
DAV:   1    -0.628603736310E+03   -0.14546E-03   -0.87655E-03 10776   0.186E-01    0.552E-02
DAV:   2    -0.628603708475E+03    0.27835E-04   -0.35695E-04  9600   0.546E-02
  48 F= -.62860371E+03 E0= -.62860371E+03  d E =-.139560E-03  mag=    20.0000
       N       E                     dE             d eps       ncg     rms          rms(c)
DAV:   1    -0.628603789689E+03   -0.53379E-04   -0.12683E-02 10800   0.224E-01    0.780E-02
DAV:   2    -0.628603778107E+03    0.11582E-04   -0.41852E-04  9468   0.527E-02
  49 F= -.62860378E+03 E0= -.62860378E+03  d E =-.696326E-04  mag=    20.0000
