       N       E                     dE             d eps       ncg     rms          rms(c)
DAV:   1     0.551109829202E+04    0.55111E+04   -0.19751E+05 21504   0.125E+03
DAV:   2     0.489625263125E+03   -0.50215E+04   -0.46246E+04 22236   0.349E+02
DAV:   3    -0.722536707205E+03   -0.12122E+04   -0.11738E+04 25356   0.178E+02
DAV:   4    -0.825491756948E+03   -0.10296E+03   -0.10156E+03 32340   0.592E+01
DAV:   5    -0.829148127151E+03   -0.36564E+01   -0.36140E+01 34032   0.127E+01
DAV:   6    -0.829309551112E+03   -0.16142E+00   -0.16027E+00 34032   0.233E+00
DAV:   7    -0.829317791070E+03   -0.82400E-02   -0.82112E-02 34116   0.535E-01
DAV:   8    -0.829318325210E+03   -0.53414E-03   -0.53321E-03 27972   0.119E-01
DAV:   9    -0.829318362768E+03   -0.37558E-04   -0.37499E-04 19992   0.364E-02
DAV:  10    -0.829318366901E+03   -0.41330E-05   -0.41175E-05 17736   0.169E-02
DAV:  11    -0.829318368448E+03   -0.15472E-05   -0.15400E-05 16488   0.116E-02
DAV:  12    -0.829318369341E+03   -0.89251E-06   -0.88940E-06 16068   0.872E-03    0.114E+02
DAV:  13    -0.619074530967E+03    0.21024E+03   -0.12727E+03 32028   0.823E+01    0.801E+01
DAV:  14    -0.678626726009E+03   -0.59552E+02   -0.12255E+03 35292   0.990E+01    0.112E+02
DAV:  15    -0.654478025164E+03    0.24149E+02   -0.42575E+02 33576   0.764E+01    0.482E+01
DAV:  16    -0.637191161277E+03    0.17287E+02   -0.81144E+01 35424   0.390E+01    0.385E+01
DAV:  17    -0.628222798442E+03    0.89684E+01   -0.44806E+01 31884   0.166E+01    0.225E+01
DAV:  18    -0.627545177583E+03    0.67762E+00   -0.16719E+01 30780   0.152E+01    0.239E+01
DAV:  19    -0.625557255276E+03    0.19879E+01   -0.17704E+01 32460   0.134E+01    0.982E+00
DAV:  20    -0.625113108782E+03    0.44415E+00   -0.30489E+00 31896   0.586E+00    0.586E+00
DAV:  21    -0.625025688979E+03    0.87420E-01   -0.15062E+00 31488   0.307E+00    0.456E+00
DAV:  22    -0.624855813934E+03    0.16988E+00   -0.22067E-01 32544   0.221E+00    0.307E+00
DAV:  23    -0.624786460896E+03    0.69353E-01   -0.16944E-01 33648   0.167E+00    0.438E+00
DAV:  24    -0.624794140881E+03   -0.76800E-02   -0.97629E-02 26484   0.598E-01    0.375E+00
DAV:  25    -0.624791195722E+03    0.29452E-02   -0.30311E-02 31704   0.397E-01    0.448E+00
DAV:  26    -0.624805507925E+03   -0.14312E-01   -0.13116E-02 34296   0.374E-01    0.535E+00
DAV:  27    -0.624822139023E+03   -0.16631E-01   -0.99411E-03 34296   0.260E-01    0.575E+00
DAV:  28    -0.624797159771E+03    0.24979E-01   -0.31268E-02 32172   0.538E-01    0.537E+00
DAV:  29    -0.624808360893E+03   -0.11201E-01   -0.34920E-01 32520   0.163E+00    0.346E+00
DAV:  30    -0.624791626032E+03    0.16735E-01   -0.66639E-01 30924   0.135E+00    0.325E+00
DAV:  31    -0.624782926386E+03    0.86996E-02   -0.22012E-01 27984   0.870E-01    0.242E+00
DAV:  32    -0.624773837399E+03    0.90890E-02   -0.23268E-02 30264   0.376E-01    0.258E+00
DAV:  33    -0.624773406109E+03    0.43129E-03   -0.14909E-02 32196   0.253E-01    0.198E+00
DAV:  34    -0.624766422769E+03    0.69833E-02   -0.41679E-02 31632   0.418E-01    0.813E-01
DAV:  35    -0.624763379031E+03    0.30437E-02   -0.20082E-02 31392   0.332E-01    0.301E-01
DAV:  36    -0.624763954591E+03   -0.57556E-03   -0.33720E-03 31332   0.133E-01    0.424E-01
DAV:  37    -0.624763892465E+03    0.62126E-04   -0.97045E-04 26628   0.745E-02
   1 F= -.62476389E+03 E0= -.62473054E+03  d E =-.624764E+03  mag=    19.7475
       N       E                     dE             d eps       ncg     rms          rms(c)
DAV:   1    -0.625193440928E+03   -0.42949E+00   -0.83086E+02 21504   0.572E+01    0.162E+01
DAV:   2    -0.626773563631E+03   -0.15801E+01   -0.52574E+01 30792   0.255E+01    0.200E+01
DAV:   3    -0.626885202797E+03   -0.11164E+00   -0.12210E+01 30288   0.754E+00    0.132E+01
DAV:   4    -0.626209202318E+03    0.67600E+00   -0.21869E+00 32736   0.369E+00    0.985E+00
DAV:   5    -0.626188104105E+03    0.21098E-01   -0.21946E+00 30252   0.317E+00    0.477E+00
DAV:   6    -0.626061476546E+03    0.12663E+00   -0.57523E-01 33516   0.263E+00    0.257E+00
DAV:   7    -0.626052198171E+03    0.92784E-02   -0.53997E-01 31392   0.197E+00    0.187E+00
DAV:   8    -0.626051915132E+03    0.28304E-03   -0.10948E-01 31320   0.893E-01    0.752E-01
DAV:   9    -0.626051990326E+03   -0.75195E-04   -0.19173E-02 31968   0.392E-01    0.526E-01
DAV:  10    -0.626051529853E+03    0.46047E-03   -0.54638E-03 30528   0.249E-01    0.411E-01
DAV:  11    -0.626050978965E+03    0.55089E-03   -0.30685E-03 31380   0.132E-01    0.209E-01
DAV:  12    -0.626050896450E+03    0.82515E-04   -0.11610E-03 31476   0.811E-02    0.134E-01
DAV:  13    -0.626050945541E+03   -0.49092E-04   -0.24339E-04 15456   0.346E-02
   2 F= -.62605095E+03 E0= -.62605095E+03  d E =-.128705E+01  mag=    19.8405
       N       E                     dE             d eps       ncg     rms          rms(c)
DAV:   1    -0.628325931716E+03   -0.22750E+01   -0.14892E+02 21648   0.243E+01    0.106E+01
DAV:   2    -0.627935248714E+03    0.39068E+00   -0.13684E+01 30144   0.111E+01    0.134E+01
DAV:   3    -0.627683613804E+03    0.25163E+00   -0.27940E+00 30420   0.356E+00    0.904E+00
DAV:   4    -0.627627359937E+03    0.56254E-01   -0.12923E+00 31944   0.271E+00    0.721E+00
DAV:   5    -0.627542935051E+03    0.84425E-01   -0.39349E-01 29808   0.198E+00    0.324E+00
DAV:   6    -0.627500694364E+03    0.42241E-01   -0.43143E-01 31548   0.142E+00    0.137E+00
DAV:   7    -0.627495226229E+03    0.54681E-02   -0.99756E-02 30516   0.708E-01    0.914E-01
DAV:   8    -0.627491628869E+03    0.35974E-02   -0.14689E-02 32028   0.468E-01    0.380E-01
DAV:   9    -0.627490863063E+03    0.76581E-03   -0.10553E-02 30828   0.247E-01    0.253E-01
DAV:  10    -0.627490847492E+03    0.15571E-04   -0.30426E-03 30456   0.117E-01    0.179E-01
DAV:  11    -0.627490719700E+03    0.12779E-03   -0.10311E-03 28356   0.705E-02    0.124E-01
DAV:  12    -0.627490718577E+03    0.11222E-05   -0.17091E-04 13356   0.372E-02
   3 F= -.62749072E+03 E0= -.62749072E+03  d E =-.143977E+01  mag=    19.9018
       N       E                     dE             d eps       ncg     rms          rms(c)
DAV:   1    -0.627345947076E+03    0.14477E+00   -0.10617E+02 21504   0.196E+01    0.473E+00
DAV:   2    -0.627708181568E+03   -0.36223E+00   -0.54138E+00 28512   0.547E+00    0.624E+00
DAV:   3    -0.627671765842E+03    0.36416E-01   -0.52633E-01 27540   0.163E+00    0.460E+00
DAV:   4    -0.627601369623E+03    0.70396E-01   -0.39480E-01 28644   0.135E+00    0.353E+00
DAV:   5    -0.627614229220E+03   -0.12860E-01   -0.31396E-01 28596   0.119E+00    0.196E+00
DAV:   6    -0.627588531682E+03    0.25698E-01   -0.10340E-01 31368   0.820E-01    0.141E+00
DAV:   7    -0.627575613191E+03    0.12918E-01   -0.13190E-01 27120   0.699E-01    0.627E-01
DAV:   8    -0.627576486120E+03   -0.87293E-03   -0.14108E-02 27480   0.298E-01    0.315E-01
DAV:   9    -0.627576506998E+03   -0.20878E-04   -0.38667E-03 29616   0.130E-01    0.237E-01
DAV:  10    -0.627576017739E+03    0.48926E-03   -0.73460E-04 27060   0.917E-02    0.167E-01
DAV:  11    -0.627575899563E+03    0.11818E-03   -0.91274E-04 27612   0.641E-02    0.874E-02
DAV:  12    -0.627575841101E+03    0.58462E-04   -0.46239E-04 20172   0.447E-02
   4 F= -.62757584E+03 E0= -.62757584E+03  d E =-.851225E-01  mag=    19.9383
       N       E                     dE             d eps       ncg     rms          rms(c)
DAV:   1    -0.627833954384E+03   -0.25805E+00   -0.16223E+01 21504   0.778E+00    0.222E+00
DAV:   2    -0.627868821022E+03   -0.34867E-01   -0.10081E+00 29136   0.245E+00    0.299E+00
DAV:   3    -0.627864079361E+03    0.47417E-02   -0.10701E-01 26736   0.708E-01    0.244E+00
DAV:   4    -0.627846846493E+03    0.17233E-01   -0.59213E-02 29676   0.516E-01    0.208E+00
DAV:   5    -0.627849408757E+03   -0.25623E-02   -0.10315E-01 29124   0.642E-01    0.125E+00
DAV:   6    -0.627843116028E+03    0.62927E-02   -0.31981E-02 32088   0.487E-01    0.895E-01
DAV:   7    -0.627839148731E+03    0.39673E-02   -0.33214E-02 29640   0.383E-01    0.543E-01
DAV:   8    -0.627839516091E+03   -0.36736E-03   -0.39851E-03 29088   0.188E-01    0.329E-01
DAV:   9    -0.627839331446E+03    0.18465E-03   -0.10074E-03 27636   0.672E-02    0.254E-01
DAV:  10    -0.627839037837E+03    0.29361E-03   -0.34042E-04 19872   0.479E-02    0.162E-01
DAV:  11    -0.627838902607E+03    0.13523E-03   -0.76213E-04 24768   0.518E-02    0.887E-02
DAV:  12    -0.627838882207E+03    0.20401E-04   -0.92284E-05 12408   0.248E-02
   5 F= -.62783888E+03 E0= -.62783888E+03  d E =-.263041E+00  mag=    19.9604
       N       E                     dE             d eps       ncg     rms          rms(c)
DAV:   1    -0.627846910099E+03   -0.80075E-02   -0.23757E+01 21504   0.963E+00    0.169E+00
DAV:   2    -0.627907121071E+03   -0.60211E-01   -0.73145E-01 26256   0.184E+00    0.112E+00
DAV:   3    -0.627907787817E+03   -0.66675E-03   -0.41039E-02 29988   0.500E-01    0.659E-01
DAV:   4    -0.627905165736E+03    0.26221E-02   -0.11973E-02 32112   0.265E-01    0.428E-01
DAV:   5    -0.627903919788E+03    0.12459E-02   -0.37481E-03 26424   0.174E-01    0.174E-01
DAV:   6    -0.627903929155E+03   -0.93671E-05   -0.25661E-03 29688   0.123E-01    0.103E-01
DAV:   7    -0.627903951553E+03   -0.22398E-04   -0.74534E-04 24372   0.610E-02
   6 F= -.62790395E+03 E0= -.62790395E+03  d E =-.650693E-01  mag=    19.9699
       N       E                     dE             d eps       ncg     rms          rms(c)
DAV:   1    -0.627943473860E+03   -0.39545E-01   -0.20025E+01 21504   0.890E+00    0.156E+00
DAV:   2    -0.627986840163E+03   -0.43366E-01   -0.72119E-01 28872   0.199E+00    0.153E+00
DAV:   3    -0.627983300738E+03    0.35394E-02   -0.60016E-02 30408   0.607E-01    0.948E-01
DAV:   4    -0.627979582641E+03    0.37181E-02   -0.19521E-02 31044   0.308E-01    0.682E-01
DAV:   5    -0.627978079292E+03    0.15033E-02   -0.59736E-03 27360   0.223E-01    0.305E-01
DAV:   6    -0.627978051212E+03    0.28080E-04   -0.39468E-03 31800   0.143E-01    0.128E-01
DAV:   7    -0.627978080693E+03   -0.29482E-04   -0.90287E-04 29796   0.796E-02
   7 F= -.62797808E+03 E0= -.62797808E+03  d E =-.741291E-01  mag=    19.9771
       N       E                     dE             d eps       ncg     rms          rms(c)
DAV:   1    -0.627753186772E+03    0.22486E+00   -0.89614E+01 21504   0.187E+01    0.314E+00
DAV:   2    -0.628034129174E+03   -0.28094E+00   -0.33404E+00 27936   0.409E+00    0.365E+00
DAV:   3    -0.628007529948E+03    0.26599E-01   -0.21901E-01 29004   0.112E+00    0.219E+00
DAV:   4    -0.627996159722E+03    0.11370E-01   -0.13900E-01 31848   0.887E-01    0.162E+00
DAV:   5    -0.627992202431E+03    0.39573E-02   -0.45162E-02 28608   0.484E-01    0.694E-01
DAV:   6    -0.627989961619E+03    0.22408E-02   -0.25369E-02 31968   0.375E-01    0.360E-01
DAV:   7    -0.627989898636E+03    0.62983E-04   -0.65511E-03 29628   0.184E-01    0.182E-01
DAV:   8    -0.627989876686E+03    0.21950E-04   -0.15189E-03 30720   0.934E-02    0.118E-01
DAV:   9    -0.627989813191E+03    0.63495E-04   -0.31603E-04 18960   0.440E-02
   8 F= -.62798981E+03 E0= -.62798981E+03  d E =-.117325E-01  mag=    19.9840
       N       E                     dE             d eps       ncg     rms          rms(c)
DAV:   1    -0.627980758920E+03    0.91178E-02   -0.25423E+01 21504   0.988E+00    0.195E+00
DAV:   2    -0.628062551545E+03   -0.81793E-01   -0.11413E+00 28980   0.254E+00    0.254E+00
DAV:   3    -0.628050646305E+03    0.11905E-01   -0.96167E-02 28236   0.698E-01    0.177E+00
DAV:   4    -0.628043410114E+03    0.72362E-02   -0.10594E-01 31500   0.691E-01    0.122E+00
DAV:   5    -0.628040678841E+03    0.27313E-02   -0.27198E-02 28092   0.424E-01    0.658E-01
DAV:   6    -0.628038787257E+03    0.18916E-02   -0.18868E-02 31548   0.302E-01    0.380E-01
DAV:   7    -0.628038124839E+03    0.66242E-03   -0.73338E-03 29160   0.173E-01    0.166E-01
DAV:   8    -0.628038088590E+03    0.36249E-04   -0.11310E-03 29784   0.967E-02    0.108E-01
DAV:   9    -0.628038056685E+03    0.31904E-04   -0.34562E-04 19152   0.421E-02
   9 F= -.62803806E+03 E0= -.62803806E+03  d E =-.482435E-01  mag=    19.9886
       N       E                     dE             d eps       ncg     rms          rms(c)
DAV:   1    -0.628040815676E+03   -0.27271E-02   -0.56622E+00 21504   0.473E+00    0.614E-01
DAV:   2    -0.628056630617E+03   -0.15815E-01   -0.15903E-01 26016   0.832E-01    0.396E-01
DAV:   3    -0.628056870730E+03   -0.24011E-03   -0.69604E-03 30732   0.181E-01    0.242E-01
DAV:   4    -0.628056434006E+03    0.43672E-03   -0.13664E-03 29628   0.881E-02    0.155E-01
DAV:   5    -0.628056253506E+03    0.18050E-03   -0.99968E-04 25704   0.774E-02    0.594E-02
DAV:   6    -0.628056243219E+03    0.10287E-04   -0.21486E-04 13740   0.442E-02
  10 F= -.62805624E+03 E0= -.62805624E+03  d E =-.181865E-01  mag=    19.9910
       N       E                     dE             d eps       ncg     rms          rms(c)
DAV:   1    -0.628051626508E+03    0.46270E-02   -0.62717E+00 21504   0.496E+00    0.827E-01
DAV:   2    -0.628069804104E+03   -0.18178E-01   -0.22744E-01 28008   0.108E+00    0.941E-01
DAV:   3    -0.628068394301E+03    0.14098E-02   -0.16070E-02 28836   0.306E-01    0.568E-01
DAV:   4    -0.628067526977E+03    0.86732E-03   -0.85266E-03 32016   0.219E-01    0.438E-01
DAV:   5    -0.628067353013E+03    0.17396E-03   -0.25815E-03 26880   0.124E-01    0.206E-01
DAV:   6    -0.628067189032E+03    0.16398E-03   -0.17945E-03 31476   0.974E-02    0.103E-01
DAV:   7    -0.628067169040E+03    0.19992E-04   -0.64873E-04 23124   0.592E-02
  11 F= -.62806717E+03 E0= -.62806717E+03  d E =-.109258E-01  mag=    19.9931
       N       E                     dE             d eps       ncg     rms          rms(c)
DAV:   1    -0.628074904561E+03   -0.77155E-02   -0.12619E+00 21504   0.220E+00    0.442E-01
DAV:   2    -0.628077967821E+03   -0.30633E-02   -0.60948E-02 29448   0.650E-01    0.641E-01
DAV:   3    -0.628077529089E+03    0.43873E-03   -0.72443E-03 28500   0.186E-01    0.481E-01
DAV:   4    -0.628076913290E+03    0.61580E-03   -0.32035E-03 30516   0.126E-01    0.405E-01
DAV:   5    -0.628076926419E+03   -0.13129E-04   -0.29783E-03 27696   0.123E-01    0.242E-01
DAV:   6    -0.628076661878E+03    0.26454E-03   -0.14571E-03 30732   0.948E-02    0.164E-01
DAV:   7    -0.628076535774E+03    0.12610E-03   -0.11058E-03 26724   0.710E-02    0.914E-02
DAV:   8    -0.628076534446E+03    0.13279E-05   -0.10585E-04 12864   0.351E-02
  12 F= -.62807653E+03 E0= -.62807653E+03  d E =-.936541E-02  mag=    19.9948
       N       E                     dE             d eps       ncg     rms          rms(c)
DAV:   1    -0.628078219252E+03   -0.16835E-02   -0.12363E+00 21528   0.220E+00    0.360E-01
DAV:   2    -0.628081684455E+03   -0.34652E-02   -0.37789E-02 26640   0.437E-01    0.286E-01
DAV:   3    -0.628081795071E+03   -0.11062E-03   -0.31360E-03 29100   0.122E-01    0.177E-01
DAV:   4    -0.628081636737E+03    0.15833E-03   -0.10435E-03 27936   0.754E-02    0.119E-01
DAV:   5    -0.628081602726E+03    0.34012E-04   -0.37257E-04 20592   0.514E-02
  13 F= -.62808160E+03 E0= -.62808160E+03  d E =-.506828E-02  mag=    19.9958
       N       E                     dE             d eps       ncg     rms          rms(c)
DAV:   1    -0.628083262187E+03   -0.16254E-02   -0.98636E-01 21504   0.194E+00    0.384E-01
DAV:   2    -0.628086031861E+03   -0.27697E-02   -0.38190E-02 27780   0.477E-01    0.442E-01
DAV:   3    -0.628085871797E+03    0.16006E-03   -0.41677E-03 29688   0.152E-01    0.291E-01
DAV:   4    -0.628085639065E+03    0.23273E-03   -0.13772E-03 27864   0.856E-02    0.225E-01
DAV:   5    -0.628085576775E+03    0.62290E-04   -0.66560E-04 24888   0.742E-02
  14 F= -.62808558E+03 E0= -.62808558E+03  d E =-.397405E-02  mag=    19.9966
       N       E                     dE             d eps       ncg     rms          rms(c)
DAV:   1    -0.628088039722E+03   -0.24007E-02   -0.72151E-01 21504   0.168E+00    0.253E-01
DAV:   2    -0.628089936538E+03   -0.18968E-02   -0.24562E-02 28032   0.403E-01    0.330E-01
DAV:   3    -0.628089870119E+03    0.66419E-04   -0.27180E-03 29628   0.116E-01    0.223E-01
DAV:   4    -0.628089732881E+03    0.13724E-03   -0.74800E-04 25440   0.682E-02    0.186E-01
DAV:   5    -0.628089698109E+03    0.34772E-04   -0.52388E-04 23304   0.691E-02
  15 F= -.62808970E+03 E0= -.62808970E+03  d E =-.412133E-02  mag=    19.9972
       N       E                     dE             d eps       ncg     rms          rms(c)
DAV:   1    -0.628090629148E+03   -0.89627E-03   -0.35427E-02 22104   0.370E-01    0.936E-02
DAV:   2    -0.628090712582E+03   -0.83434E-04   -0.18046E-03 30204   0.108E-01    0.100E-01
DAV:   3    -0.628090682545E+03    0.30037E-04   -0.22671E-04 15504   0.384E-02
  16 F= -.62809068E+03 E0= -.62809068E+03  d E =-.984436E-03  mag=    19.9974
       N       E                     dE             d eps       ncg     rms          rms(c)
DAV:   1    -0.628092102095E+03   -0.13895E-02   -0.13503E+00 21504   0.231E+00    0.344E-01
DAV:   2    -0.628095749349E+03   -0.36473E-02   -0.38251E-02 26220   0.419E-01    0.228E-01
DAV:   3    -0.628095783729E+03   -0.34380E-04   -0.17895E-03 29256   0.105E-01    0.114E-01
DAV:   4    -0.628095682303E+03    0.10143E-03   -0.25045E-04 16116   0.441E-02    0.770E-02
DAV:   5    -0.628095658320E+03    0.23983E-04   -0.24704E-04 13764   0.393E-02
  17 F= -.62809566E+03 E0= -.62809566E+03  d E =-.497577E-02  mag=    19.9979
       N       E                     dE             d eps       ncg     rms          rms(c)
DAV:   1    -0.628097147011E+03   -0.14647E-02   -0.22118E-01 21528   0.936E-01    0.156E-01
DAV:   2    -0.628097609455E+03   -0.46244E-03   -0.65789E-03 26472   0.177E-01    0.929E-02
DAV:   3    -0.628097610151E+03   -0.69608E-06   -0.34950E-04 19704   0.521E-02
  18 F= -.62809761E+03 E0= -.62809761E+03  d E =-.195183E-02  mag=    19.9981
       N       E                     dE             d eps       ncg     rms          rms(c)
DAV:   1    -0.628091535563E+03    0.60739E-02   -0.83726E-01 21504   0.182E+00    0.217E-01
DAV:   2    -0.628093948390E+03   -0.24128E-02   -0.24991E-02 26592   0.357E-01    0.213E-01
DAV:   3    -0.628093942485E+03    0.59053E-05   -0.15099E-03 29400   0.909E-02    0.117E-01
DAV:   4    -0.628093862089E+03    0.80395E-04   -0.30845E-04 20004   0.513E-02
  19 F= -.62809386E+03 E0= -.62809386E+03  d E =0.374806E-02  mag=    19.9983
       N       E                     dE             d eps       ncg     rms          rms(c)
DAV:   1    -0.628092874706E+03    0.10678E-02   -0.30855E+00 21504   0.349E+00    0.372E-01
DAV:   2    -0.628101285155E+03   -0.84104E-02   -0.84696E-02 25224   0.623E-01    0.256E-01
DAV:   3    -0.628101338420E+03   -0.53265E-04   -0.36756E-03 31464   0.138E-01    0.146E-01
DAV:   4    -0.628101166320E+03    0.17210E-03   -0.35310E-04 20232   0.613E-02    0.106E-01
DAV:   5    -0.628101035724E+03    0.13060E-03   -0.47874E-04 21504   0.659E-02    0.489E-02
DAV:   6    -0.628101048473E+03   -0.12749E-04   -0.35755E-04 19416   0.461E-02
  20 F= -.62810105E+03 E0= -.62810105E+03  d E =-.718638E-02  mag=    19.9987
       N       E                     dE             d eps       ncg     rms          rms(c)
DAV:   1    -0.628101955656E+03   -0.91993E-03   -0.42764E-01 21504   0.129E+00    0.237E-01
DAV:   2    -0.628103426829E+03   -0.14712E-02   -0.11640E-02 26892   0.242E-01    0.150E-01
DAV:   3    -0.628103558737E+03   -0.13191E-03   -0.75656E-04 25296   0.656E-02    0.873E-02
DAV:   4    -0.628103534983E+03    0.23754E-04   -0.64833E-05 12768   0.232E-02
  21 F= -.62810353E+03 E0= -.62810353E+03  d E =-.248651E-02  mag=    19.9988
       N       E                     dE             d eps       ncg     rms          rms(c)
DAV:   1    -0.628104363643E+03   -0.80491E-03   -0.75806E-02 21576   0.543E-01    0.722E-02
DAV:   2    -0.628104559254E+03   -0.19561E-03   -0.19701E-03 26388   0.982E-02    0.600E-02
DAV:   3    -0.628104556963E+03    0.22911E-05   -0.65664E-05 12132   0.232E-02
  22 F= -.62810456E+03 E0= -.62810456E+03  d E =-.102198E-02  mag=    19.9989
       N       E                     dE             d eps       ncg     rms          rms(c)
DAV:   1    -0.628101552118E+03    0.30071E-02   -0.32956E+00 21504   0.359E+00    0.465E-01
DAV:   2    -0.628110662556E+03   -0.91104E-02   -0.86222E-02 24396   0.620E-01    0.259E-01
DAV:   3    -0.628110907298E+03   -0.24474E-03   -0.33192E-03 30720   0.124E-01    0.148E-01
DAV:   4    -0.628110732990E+03    0.17431E-03   -0.36447E-04 18780   0.552E-02    0.961E-02
DAV:   5    -0.628110620788E+03    0.11220E-03   -0.46476E-04 21264   0.600E-02    0.468E-02
DAV:   6    -0.628110626583E+03   -0.57958E-05   -0.19845E-04 14736   0.357E-02
  23 F= -.62811063E+03 E0= -.62811063E+03  d E =-.606962E-02  mag=    19.9991
       N       E                     dE             d eps       ncg     rms          rms(c)
DAV:   1    -0.628108832670E+03    0.17881E-02   -0.20789E+00 21504   0.284E+00    0.412E-01
DAV:   2    -0.628115060414E+03   -0.62277E-02   -0.55028E-02 25152   0.495E-01    0.236E-01
DAV:   3    -0.628115347331E+03   -0.28692E-03   -0.24447E-03 30132   0.104E-01    0.122E-01
DAV:   4    -0.628115234702E+03    0.11263E-03   -0.23005E-04 17124   0.430E-02    0.832E-02
DAV:   5    -0.628115192329E+03    0.42373E-04   -0.45919E-04 20172   0.497E-02
  24 F= -.62811519E+03 E0= -.62811519E+03  d E =-.456575E-02  mag=    19.9993
       N       E                     dE             d eps       ncg     rms          rms(c)
DAV:   1    -0.628109357188E+03    0.58775E-02   -0.35451E+00 21504   0.371E+00    0.532E-01
DAV:   2    -0.628120139441E+03   -0.10782E-01   -0.93228E-02 24432   0.644E-01    0.303E-01
DAV:   3    -0.628120627144E+03   -0.48770E-03   -0.37024E-03 29952   0.128E-01    0.149E-01
DAV:   4    -0.628120438244E+03    0.18890E-03   -0.51271E-04 22236   0.616E-02    0.100E-01
DAV:   5    -0.628120348563E+03    0.89681E-04   -0.53025E-04 22764   0.645E-02
  25 F= -.62812035E+03 E0= -.62812035E+03  d E =-.515623E-02  mag=    19.9994
       N       E                     dE             d eps       ncg     rms          rms(c)
DAV:   1    -0.628120836667E+03   -0.39842E-03   -0.40917E-01 21528   0.125E+00    0.212E-01
DAV:   2    -0.628122034308E+03   -0.11976E-02   -0.11167E-02 25236   0.229E-01    0.136E-01
DAV:   3    -0.628122085298E+03   -0.50989E-04   -0.61691E-04 24600   0.599E-02
  26 F= -.62812209E+03 E0= -.62812209E+03  d E =-.173673E-02  mag=    19.9995
       N       E                     dE             d eps       ncg     rms          rms(c)
DAV:   1    -0.628122588641E+03   -0.55433E-03   -0.11384E-01 21600   0.668E-01    0.128E-01
DAV:   2    -0.628122792457E+03   -0.20382E-03   -0.38338E-03 28644   0.148E-01    0.125E-01
DAV:   3    -0.628122761822E+03    0.30634E-04   -0.32540E-04 19272   0.469E-02
  27 F= -.62812276E+03 E0= -.62812276E+03  d E =-.676525E-03  mag=    19.9995
       N       E                     dE             d eps       ncg     rms          rms(c)
DAV:   1    -0.628122889707E+03   -0.97250E-04   -0.10046E-02 21648   0.194E-01    0.467E-02
DAV:   2    -0.628122943994E+03   -0.54287E-04   -0.87956E-04 27564   0.693E-02
  28 F= -.62812294E+03 E0= -.62812294E+03  d E =-.182171E-03  mag=    19.9995
       N       E                     dE             d eps       ncg     rms          rms(c)
DAV:   1    -0.628123242260E+03   -0.35255E-03   -0.29344E-02 21672   0.340E-01    0.572E-02
DAV:   2    -0.628123306404E+03   -0.64144E-04   -0.10409E-03 27156   0.723E-02    0.390E-02
DAV:   3    -0.628123293187E+03    0.13217E-04   -0.71073E-05 14100   0.267E-02
  29 F= -.62812329E+03 E0= -.62812329E+03  d E =-.349194E-03  mag=    19.9996
       N       E                     dE             d eps       ncg     rms          rms(c)
DAV:   1    -0.628122750654E+03    0.55575E-03   -0.36535E-02 21624   0.377E-01    0.395E-02
DAV:   2    -0.628122848405E+03   -0.97751E-04   -0.10091E-03 23232   0.671E-02    0.268E-02
DAV:   3    -0.628122848711E+03   -0.30581E-06   -0.29081E-05 11832   0.144E-02
  30 F= -.62812285E+03 E0= -.62812285E+03  d E =0.444476E-03  mag=    19.9996
       N       E                     dE             d eps       ncg     rms          rms(c)
DAV:   1    -0.628123113132E+03   -0.26473E-03   -0.53798E-01 21504   0.145E+00    0.154E-01
DAV:   2    -0.628124570754E+03   -0.14576E-02   -0.14215E-02 24492   0.251E-01    0.920E-02
DAV:   3    -0.628124587762E+03   -0.17009E-04   -0.45008E-04 22104   0.461E-02
  31 F= -.62812459E+03 E0= -.62812459E+03  d E =-.173905E-02  mag=    19.9997
       N       E                     dE             d eps       ncg     rms          rms(c)
DAV:   1    -0.628124935200E+03   -0.36445E-03   -0.29399E-02 21624   0.337E-01    0.653E-02
DAV:   2    -0.628124979752E+03   -0.44552E-04   -0.83297E-04 24264   0.665E-02
  32 F= -.62812498E+03 E0= -.62812498E+03  d E =-.391989E-03  mag=    19.9997
       N       E                     dE             d eps       ncg     rms          rms(c)
DAV:   1    -0.628123369430E+03    0.15658E-02   -0.12466E+00 21504   0.219E+00    0.353E-01
DAV:   2    -0.628127361166E+03   -0.39917E-02   -0.31920E-02 24492   0.376E-01    0.194E-01
DAV:   3    -0.628127582362E+03   -0.22120E-03   -0.12660E-03 28212   0.738E-02    0.880E-02
DAV:   4    -0.628127498166E+03    0.84196E-04   -0.14224E-04 15588   0.370E-02
  33 F= -.62812750E+03 E0= -.62812750E+03  d E =-.251841E-02  mag=    19.9997
       N       E                     dE             d eps       ncg     rms          rms(c)
DAV:   1    -0.628126852850E+03    0.72951E-03   -0.89836E-01 21504   0.186E+00    0.275E-01
DAV:   2    -0.628129456707E+03   -0.26039E-02   -0.22409E-02 24288   0.316E-01    0.151E-01
DAV:   3    -0.628129586533E+03   -0.12983E-03   -0.97724E-04 27672   0.624E-02    0.725E-02
DAV:   4    -0.628129532551E+03    0.53981E-04   -0.90142E-05 13908   0.302E-02
  34 F= -.62812953E+03 E0= -.62812953E+03  d E =-.203439E-02  mag=    19.9998
       N       E                     dE             d eps       ncg     rms          rms(c)
DAV:   1    -0.628129885505E+03   -0.29897E-03   -0.22281E-01 21552   0.928E-01    0.118E-01
DAV:   2    -0.628130443903E+03   -0.55840E-03   -0.57508E-03 25704   0.166E-01    0.864E-02
DAV:   3    -0.628130455754E+03   -0.11851E-04   -0.24697E-04 16512   0.407E-02
  35 F= -.62813046E+03 E0= -.62813046E+03  d E =-.923203E-03  mag=    19.9998
       N       E                     dE             d eps       ncg     rms          rms(c)
DAV:   1    -0.628129892754E+03    0.55115E-03   -0.54072E-02 21552   0.459E-01    0.112E-01
DAV:   2    -0.628130060697E+03   -0.16794E-03   -0.21288E-03 28404   0.110E-01    0.924E-02
DAV:   3    -0.628130053817E+03    0.68797E-05   -0.16611E-04 14892   0.399E-02
  36 F= -.62813005E+03 E0= -.62813005E+03  d E =0.401937E-03  mag=    19.9998
       N       E                     dE             d eps       ncg     rms          rms(c)
DAV:   1    -0.628130362629E+03   -0.30193E-03   -0.26702E-01 21528   0.102E+00    0.131E-01
DAV:   2    -0.628131066370E+03   -0.70374E-03   -0.75284E-03 26268   0.188E-01    0.102E-01
DAV:   3    -0.628131060327E+03    0.60437E-05   -0.33029E-04 19188   0.479E-02
  37 F= -.62813106E+03 E0= -.62813106E+03  d E =-.100651E-02  mag=    19.9998
       N       E                     dE             d eps       ncg     rms          rms(c)
DAV:   1    -0.628131337636E+03   -0.27127E-03   -0.14658E-01 21528   0.753E-01    0.991E-02
DAV:   2    -0.628131755217E+03   -0.41758E-03   -0.47821E-03 28080   0.160E-01    0.119E-01
DAV:   3    -0.628131719907E+03    0.35310E-04   -0.28292E-04 18732   0.430E-02
  38 F= -.62813172E+03 E0= -.62813172E+03  d E =-.659580E-03  mag=    19.9998
       N       E                     dE             d eps       ncg     rms          rms(c)
DAV:   1    -0.628132073609E+03   -0.31839E-03   -0.55941E-02 21552   0.466E-01    0.857E-02
DAV:   2    -0.628132230373E+03   -0.15676E-03   -0.21674E-03 29340   0.106E-01    0.785E-02
DAV:   3    -0.628132187931E+03    0.42442E-04   -0.15124E-04 15300   0.372E-02
  39 F= -.62813219E+03 E0= -.62813219E+03  d E =-.468025E-03  mag=    19.9998
       N       E                     dE             d eps       ncg     rms          rms(c)
DAV:   1    -0.628132508153E+03   -0.27778E-03   -0.15110E-01 21516   0.763E-01    0.111E-01
DAV:   2    -0.628132892709E+03   -0.38456E-03   -0.40625E-03 26796   0.143E-01    0.901E-02
DAV:   3    -0.628132889663E+03    0.30462E-05   -0.22527E-04 16872   0.386E-02
  40 F= -.62813289E+03 E0= -.62813289E+03  d E =-.701732E-03  mag=    19.9999
       N       E                     dE             d eps       ncg     rms          rms(c)
DAV:   1    -0.628133187862E+03   -0.29515E-03   -0.70624E-02 21516   0.523E-01    0.710E-02
DAV:   2    -0.628133379600E+03   -0.19174E-03   -0.22258E-03 27840   0.108E-01    0.731E-02
DAV:   3    -0.628133362238E+03    0.17362E-04   -0.12459E-04 13800   0.312E-02
  41 F= -.62813336E+03 E0= -.62813336E+03  d E =-.472575E-03  mag=    19.9999
       N       E                     dE             d eps       ncg     rms          rms(c)
DAV:   1    -0.628133549828E+03   -0.17023E-03   -0.14423E-02 21624   0.237E-01    0.425E-02
DAV:   2    -0.628133584212E+03   -0.34384E-04   -0.46988E-04 20232   0.481E-02
  42 F= -.62813358E+03 E0= -.62813358E+03  d E =-.221973E-03  mag=    19.9999
       N       E                     dE             d eps       ncg     rms          rms(c)
DAV:   1    -0.628131039602E+03    0.25102E-02   -0.13939E+00 21504   0.231E+00    0.375E-01
DAV:   2    -0.628135420137E+03   -0.43805E-02   -0.35384E-02 24492   0.397E-01    0.198E-01
DAV:   3    -0.628135728152E+03   -0.30801E-03   -0.18321E-03 29712   0.845E-02    0.963E-02
DAV:   4    -0.628135650185E+03    0.77967E-04   -0.13948E-04 15432   0.331E-02
  43 F= -.62813565E+03 E0= -.62813565E+03  d E =-.206597E-02  mag=    19.9999
       N       E                     dE             d eps       ncg     rms          rms(c)
DAV:   1    -0.628135587290E+03    0.14086E-03   -0.41989E-01 21504   0.127E+00    0.190E-01
DAV:   2    -0.628136709586E+03   -0.11223E-02   -0.10469E-02 24396   0.218E-01    0.114E-01
DAV:   3    -0.628136740612E+03   -0.31025E-04   -0.43008E-04 21852   0.478E-02
  44 F= -.62813674E+03 E0= -.62813674E+03  d E =-.109043E-02  mag=    19.9999
       N       E                     dE             d eps       ncg     rms          rms(c)
DAV:   1    -0.628126908534E+03    0.98011E-02   -0.22000E+00 21504   0.291E+00    0.444E-01
DAV:   2    -0.628133917210E+03   -0.70087E-02   -0.57785E-02 24168   0.505E-01    0.233E-01
DAV:   3    -0.628134360497E+03   -0.44329E-03   -0.23959E-03 29964   0.999E-02    0.105E-01
DAV:   4    -0.628134267893E+03    0.92605E-04   -0.17139E-04 15576   0.360E-02
  45 F= -.62813427E+03 E0= -.62813427E+03  d E =0.247272E-02  mag=    19.9999
       N       E                     dE             d eps       ncg     rms          rms(c)
DAV:   1    -0.628131129841E+03    0.32307E-02   -0.17889E+00 21504   0.263E+00    0.319E-01
DAV:   2    -0.628136411492E+03   -0.52817E-02   -0.48712E-02 23772   0.460E-01    0.172E-01
DAV:   3    -0.628136574851E+03   -0.16336E-03   -0.16060E-03 29508   0.861E-02    0.990E-02
DAV:   4    -0.628136515058E+03    0.59793E-04   -0.11756E-04 13464   0.299E-02
  46 F= -.62813652E+03 E0= -.62813652E+03  d E =-.224717E-02  mag=    19.9999
       N       E                     dE             d eps       ncg     rms          rms(c)
DAV:   1    -0.628136219303E+03    0.35555E-03   -0.17394E-02 21648   0.266E-01    0.573E-02
DAV:   2    -0.628136274682E+03   -0.55378E-04   -0.87618E-04 25416   0.674E-02
  47 F= -.62813627E+03 E0= -.62813627E+03  d E =0.240377E-03  mag=    19.9999
       N       E                     dE             d eps       ncg     rms          rms(c)
DAV:   1    -0.628136477508E+03   -0.25820E-03   -0.15484E-01 21504   0.773E-01    0.110E-01
DAV:   2    -0.628136894345E+03   -0.41684E-03   -0.43743E-03 25896   0.149E-01    0.915E-02
DAV:   3    -0.628136890690E+03    0.36550E-05   -0.22808E-04 15600   0.430E-02
  48 F= -.62813689E+03 E0= -.62813689E+03  d E =-.616009E-03  mag=    19.9999
       N       E                     dE             d eps       ncg     rms          rms(c)
DAV:   1    -0.628137057880E+03   -0.16353E-03   -0.89508E-03 21888   0.190E-01    0.537E-02
DAV:   2    -0.628137048284E+03    0.95957E-05   -0.46739E-04 22056   0.543E-02
  49 F= -.62813705E+03 E0= -.62813705E+03  d E =-.157594E-03  mag=    19.9999
       N       E                     dE             d eps       ncg     rms          rms(c)
DAV:   1    -0.628137210754E+03   -0.15287E-03   -0.12086E-01 21504   0.683E-01    0.985E-02
DAV:   2    -0.628137570789E+03   -0.36003E-03   -0.31936E-03 26472   0.122E-01    0.630E-02
DAV:   3    -0.628137574526E+03   -0.37369E-05   -0.90181E-05 13152   0.265E-02
  50 F= -.62813757E+03 E0= -.62813757E+03  d E =-.526242E-03  mag=    19.9999
       N       E                     dE             d eps       ncg     rms          rms(c)
DAV:   1    -0.628137253839E+03    0.31695E-03   -0.24211E-02 21528   0.308E-01    0.450E-02
DAV:   2    -0.628137321506E+03   -0.67666E-04   -0.73566E-04 22200   0.588E-02
  51 F= -.62813732E+03 E0= -.62813732E+03  d E =0.253020E-03  mag=    19.9999
       N       E                     dE             d eps       ncg     rms          rms(c)
DAV:   1    -0.628137304261E+03   -0.50422E-04   -0.44851E-04 18912   0.421E-02    0.189E-02
DAV:   2    -0.628137306199E+03   -0.19376E-05   -0.19701E-05 11604   0.134E-02
  52 F= -.62813731E+03 E0= -.62813731E+03  d E =0.153066E-04  mag=    20.0000
       N       E                     dE             d eps       ncg     rms          rms(c)
DAV:   1    -0.628137502721E+03   -0.19846E-03   -0.14199E-01 21504   0.742E-01    0.904E-02
DAV:   2    -0.628137863912E+03   -0.36119E-03   -0.40163E-03 26076   0.136E-01    0.687E-02
DAV:   3    -0.628137858799E+03    0.51134E-05   -0.12512E-04 14544   0.320E-02
  53 F= -.62813786E+03 E0= -.62813786E+03  d E =-.552600E-03  mag=    20.0000
       N       E                     dE             d eps       ncg     rms          rms(c)
DAV:   1    -0.628138057235E+03   -0.19332E-03   -0.36604E-02 21528   0.375E-01    0.605E-02
DAV:   2    -0.628138160370E+03   -0.10313E-03   -0.10765E-03 26232   0.707E-02    0.456E-02
DAV:   3    -0.628138154814E+03    0.55555E-05   -0.48656E-05 12276   0.207E-02
  54 F= -.62813815E+03 E0= -.62813815E+03  d E =-.296015E-03  mag=    20.0000
       N       E                     dE             d eps       ncg     rms          rms(c)
DAV:   1    -0.628138242497E+03   -0.82127E-04   -0.42701E-03 20544   0.128E-01    0.270E-02
DAV:   2    -0.628138250109E+03   -0.76120E-05   -0.10206E-04 11808   0.243E-02
  55 F= -.62813825E+03 E0= -.62813825E+03  d E =-.952946E-04  mag=    20.0000
       N       E                     dE             d eps       ncg     rms          rms(c)
DAV:   1    -0.628138230623E+03    0.11873E-04   -0.66845E-02 21528   0.489E-01    0.144E-01
DAV:   2    -0.628138558447E+03   -0.32782E-03   -0.17302E-03 25632   0.943E-02    0.813E-02
DAV:   3    -0.628138603230E+03   -0.44783E-04   -0.11302E-04 13536   0.301E-02
  56 F= -.62813860E+03 E0= -.62813860E+03  d E =-.353122E-03  mag=    20.0000
       N       E                     dE             d eps       ncg     rms          rms(c)
DAV:   1    -0.628138147229E+03    0.41122E-03   -0.38337E-01 21504   0.121E+00    0.209E-01
DAV:   2    -0.628139432158E+03   -0.12849E-02   -0.97638E-03 25044   0.209E-01    0.115E-01
DAV:   3    -0.628139505705E+03   -0.73547E-04   -0.36420E-04 19884   0.431E-02
  57 F= -.62813951E+03 E0= -.62813951E+03  d E =-.902474E-03  mag=    20.0000
       N       E                     dE             d eps       ncg     rms          rms(c)
DAV:   1    -0.628136597503E+03    0.28347E-02   -0.42800E-01 21504   0.127E+00    0.278E-01
DAV:   2    -0.628138384512E+03   -0.17870E-02   -0.11314E-02 24972   0.232E-01    0.150E-01
DAV:   3    -0.628138596534E+03   -0.21202E-03   -0.54878E-04 23256   0.552E-02    0.610E-02
DAV:   4    -0.628138585491E+03    0.11043E-04   -0.47758E-05 12180   0.201E-02
  58 F= -.62813859E+03 E0= -.62813859E+03  d E =0.920214E-03  mag=    20.0000
       N       E                     dE             d eps       ncg     rms          rms(c)
DAV:   1    -0.628138306277E+03    0.29026E-03   -0.35469E-01 21504   0.117E+00    0.166E-01
DAV:   2    -0.628139397225E+03   -0.10909E-02   -0.97101E-03 24696   0.208E-01    0.969E-02
DAV:   3    -0.628139437231E+03   -0.40006E-04   -0.26785E-04 17484   0.425E-02
  59 F= -.62813944E+03 E0= -.62813944E+03  d E =-.851740E-03  mag=    20.0000
       N       E                     dE             d eps       ncg     rms          rms(c)
DAV:   1    -0.628139558367E+03   -0.16114E-03   -0.22168E-02 21504   0.292E-01    0.494E-02
DAV:   2    -0.628139615914E+03   -0.57547E-04   -0.90378E-04 26508   0.714E-02
  60 F= -.62813962E+03 E0= -.62813962E+03  d E =-.178683E-03  mag=    20.0000
       N       E                     dE             d eps       ncg     rms          rms(c)
DAV:   1    -0.628139681981E+03   -0.12361E-03   -0.52250E-03 21480   0.141E-01    0.498E-02
DAV:   2    -0.628139686464E+03   -0.44835E-05   -0.62027E-04 24864   0.576E-02
  61 F= -.62813969E+03 E0= -.62813969E+03  d E =-.705498E-04  mag=    20.0000
       N       E                     dE             d eps       ncg     rms          rms(c)
DAV:   1    -0.628139831661E+03   -0.14968E-03   -0.77779E-02 21504   0.548E-01    0.807E-02
DAV:   2    -0.628140062647E+03   -0.23099E-03   -0.21586E-03 26592   0.998E-02    0.513E-02
DAV:   3    -0.628140059250E+03    0.33973E-05   -0.76399E-05 12792   0.252E-02
  62 F= -.62814006E+03 E0= -.62814006E+03  d E =-.372786E-03  mag=    20.0000
       N       E                     dE             d eps       ncg     rms          rms(c)
DAV:   1    -0.628140230463E+03   -0.16782E-03   -0.50064E-02 21504   0.440E-01    0.564E-02
DAV:   2    -0.628140356836E+03   -0.12637E-03   -0.12706E-03 24840   0.765E-02    0.398E-02
DAV:   3    -0.628140354330E+03    0.25055E-05   -0.40142E-05 12000   0.170E-02
  63 F= -.62814035E+03 E0= -.62814035E+03  d E =-.295080E-03  mag=    20.0000
       N       E                     dE             d eps       ncg     rms          rms(c)
DAV:   1    -0.628140522038E+03   -0.16520E-03   -0.36793E-02 21504   0.377E-01    0.654E-02
DAV:   2    -0.628140601850E+03   -0.79811E-04   -0.10865E-03 25956   0.733E-02    0.526E-02
DAV:   3    -0.628140596792E+03    0.50581E-05   -0.68250E-05 12492   0.235E-02
  64 F= -.62814060E+03 E0= -.62814060E+03  d E =-.242461E-03  mag=    20.0000
       N       E                     dE             d eps       ncg     rms          rms(c)
DAV:   1    -0.628140798450E+03   -0.19660E-03   -0.67664E-02 21504   0.514E-01    0.819E-02
DAV:   2    -0.628140950228E+03   -0.15178E-03   -0.20698E-03 27972   0.102E-01    0.700E-02
DAV:   3    -0.628140938954E+03    0.11273E-04   -0.10588E-04 14148   0.322E-02
  65 F= -.62814094E+03 E0= -.62814094E+03  d E =-.342163E-03  mag=    20.0000
       N       E                     dE             d eps       ncg     rms          rms(c)
DAV:   1    -0.628141080353E+03   -0.13013E-03   -0.36186E-02 21504   0.374E-01    0.575E-02
DAV:   2    -0.628141178565E+03   -0.98212E-04   -0.95350E-04 25548   0.686E-02
  66 F= -.62814118E+03 E0= -.62814118E+03  d E =-.239611E-03  mag=    20.0000
       N       E                     dE             d eps       ncg     rms          rms(c)
DAV:   1    -0.628141310840E+03   -0.23049E-03   -0.34708E-02 21528   0.363E-01    0.745E-02
DAV:   2    -0.628141417577E+03   -0.10674E-03   -0.95885E-04 24252   0.689E-02    0.474E-02
DAV:   3    -0.628141419438E+03   -0.18614E-05   -0.52338E-05 12300   0.205E-02
  67 F= -.62814142E+03 E0= -.62814142E+03  d E =-.240873E-03  mag=    20.0000
       N       E                     dE             d eps       ncg     rms          rms(c)
DAV:   1    -0.628141565826E+03   -0.14825E-03   -0.38218E-02 21504   0.384E-01    0.552E-02
DAV:   2    -0.628141666590E+03   -0.10076E-03   -0.10058E-03 23556   0.675E-02    0.353E-02
DAV:   3    -0.628141666978E+03   -0.38822E-06   -0.36289E-05 11796   0.176E-02
  68 F= -.62814167E+03 E0= -.62814167E+03  d E =-.247540E-03  mag=    20.0000
       N       E                     dE             d eps       ncg     rms          rms(c)
DAV:   1    -0.628141796055E+03   -0.12947E-03   -0.35631E-02 21504   0.369E-01    0.575E-02
DAV:   2    -0.628141898906E+03   -0.10285E-03   -0.91551E-04 24432   0.651E-02    0.394E-02
DAV:   3    -0.628141900960E+03   -0.20536E-05   -0.36457E-05 11808   0.176E-02
  69 F= -.62814190E+03 E0= -.62814190E+03  d E =-.233982E-03  mag=    20.0000
       N       E                     dE             d eps       ncg     rms          rms(c)
DAV:   1    -0.628140927047E+03    0.97186E-03   -0.71552E-01 21504   0.166E+00    0.202E-01
DAV:   2    -0.628142913349E+03   -0.19863E-02   -0.18551E-02 24180   0.283E-01    0.114E-01
DAV:   3    -0.628142960546E+03   -0.47197E-04   -0.67721E-04 24912   0.540E-02
  70 F= -.62814296E+03 E0= -.62814296E+03  d E =-.105959E-02  mag=    20.0000
       N       E                     dE             d eps       ncg     rms          rms(c)
DAV:   1    -0.628142294706E+03    0.61864E-03   -0.84291E-02 21504   0.573E-01    0.886E-02
DAV:   2    -0.628142555860E+03   -0.26115E-03   -0.26132E-03 25512   0.109E-01    0.498E-02
DAV:   3    -0.628142574680E+03   -0.18820E-04   -0.10061E-04 12720   0.266E-02
  71 F= -.62814257E+03 E0= -.62814257E+03  d E =0.385866E-03  mag=    20.0000
       N       E                     dE             d eps       ncg     rms          rms(c)
DAV:   1    -0.628142622490E+03   -0.66629E-04   -0.12424E-01 21504   0.692E-01    0.937E-02
DAV:   2    -0.628142981883E+03   -0.35939E-03   -0.32928E-03 24360   0.122E-01    0.493E-02
DAV:   3    -0.628142996992E+03   -0.15109E-04   -0.11367E-04 12432   0.249E-02
  72 F= -.62814300E+03 E0= -.62814300E+03  d E =-.422312E-03  mag=    20.0000
       N       E                     dE             d eps       ncg     rms          rms(c)
DAV:   1    -0.628143123586E+03   -0.14170E-03   -0.25412E-02 21528   0.313E-01    0.475E-02
DAV:   2    -0.628143178298E+03   -0.54712E-04   -0.66289E-04 21948   0.549E-02
  73 F= -.62814318E+03 E0= -.62814318E+03  d E =-.181306E-03  mag=    20.0000
       N       E                     dE             d eps       ncg     rms          rms(c)
DAV:   1    -0.628143215394E+03   -0.91807E-04   -0.28409E-02 21516   0.322E-01    0.885E-02
DAV:   2    -0.628143342900E+03   -0.12751E-03   -0.77506E-04 23472   0.629E-02    0.555E-02
DAV:   3    -0.628143354007E+03   -0.11107E-04   -0.56021E-05 12564   0.219E-02
  74 F= -.62814335E+03 E0= -.62814335E+03  d E =-.175709E-03  mag=    20.0000
       N       E                     dE             d eps       ncg     rms          rms(c)
DAV:   1    -0.628143385703E+03   -0.42804E-04   -0.88088E-02 21504   0.580E-01    0.982E-02
DAV:   2    -0.628143675277E+03   -0.28957E-03   -0.22325E-03 24744   0.987E-02    0.534E-02
DAV:   3    -0.628143688480E+03   -0.13203E-04   -0.65226E-05 12804   0.206E-02
  75 F= -.62814369E+03 E0= -.62814369E+03  d E =-.334473E-03  mag=    20.0000
       N       E                     dE             d eps       ncg     rms          rms(c)
DAV:   1    -0.628143721268E+03   -0.45991E-04   -0.15944E-01 21504   0.786E-01    0.816E-02
DAV:   2    -0.628144121515E+03   -0.40025E-03   -0.42892E-03 26940   0.142E-01    0.697E-02
DAV:   3    -0.628144108899E+03    0.12616E-04   -0.13355E-04 13836   0.337E-02
  76 F= -.62814411E+03 E0= -.62814411E+03  d E =-.420419E-03  mag=    20.0000
       N       E                     dE             d eps       ncg     rms          rms(c)
DAV:   1    -0.628144120657E+03    0.85851E-06   -0.15372E-03 20040   0.756E-02    0.322E-02
DAV:   2    -0.628144118264E+03    0.23925E-05   -0.10521E-04 12420   0.270E-02
  77 F= -.62814412E+03 E0= -.62814412E+03  d E =-.936499E-05  mag=    20.0000
       N       E                     dE             d eps       ncg     rms          rms(c)
DAV:   1    -0.628144214457E+03   -0.93800E-04   -0.59713E-02 21504   0.480E-01    0.668E-02
DAV:   2    -0.628144374340E+03   -0.15988E-03   -0.15665E-03 24720   0.845E-02    0.411E-02
DAV:   3    -0.628144376295E+03   -0.19554E-05   -0.56180E-05 11736   0.206E-02
  78 F= -.62814438E+03 E0= -.62814438E+03  d E =-.258031E-03  mag=    20.0000
       N       E                     dE             d eps       ncg     rms          rms(c)
DAV:   1    -0.628144484992E+03   -0.11065E-03   -0.24807E-02 21528   0.309E-01    0.424E-02
DAV:   2    -0.628144540878E+03   -0.55886E-04   -0.62353E-04 21252   0.524E-02
  79 F= -.62814454E+03 E0= -.62814454E+03  d E =-.164582E-03  mag=    20.0000
       N       E                     dE             d eps       ncg     rms          rms(c)
DAV:   1    -0.628144263144E+03    0.22185E-03   -0.16295E-01 21504   0.781E-01    0.170E-01
DAV:   2    -0.628144890773E+03   -0.62763E-03   -0.40699E-03 25332   0.135E-01    0.888E-02
DAV:   3    -0.628144947013E+03   -0.56239E-04   -0.16742E-04 15300   0.322E-02
  80 F= -.62814495E+03 E0= -.62814495E+03  d E =-.406135E-03  mag=    20.0000
       N       E                     dE             d eps       ncg     rms          rms(c)
DAV:   1    -0.628144551890E+03    0.33888E-03   -0.31516E-01 21504   0.110E+00    0.162E-01
DAV:   2    -0.628145477417E+03   -0.92553E-03   -0.80143E-03 24420   0.188E-01    0.897E-02
DAV:   3    -0.628145503257E+03   -0.25840E-04   -0.26108E-04 18336   0.372E-02
  81 F= -.62814550E+03 E0= -.62814550E+03  d E =-.556245E-03  mag=    20.0000
       N       E                     dE             d eps       ncg     rms          rms(c)
DAV:   1    -0.628145600934E+03   -0.12352E-03   -0.63545E-02 21528   0.497E-01    0.702E-02
DAV:   2    -0.628145723549E+03   -0.12262E-03   -0.16809E-03 25800   0.921E-02    0.532E-02
DAV:   3    -0.628145710529E+03    0.13020E-04   -0.62450E-05 12348   0.279E-02
  82 F= -.62814571E+03 E0= -.62814571E+03  d E =-.207272E-03  mag=    20.0000
       N       E                     dE             d eps       ncg     rms          rms(c)
DAV:   1    -0.628145702264E+03    0.21286E-04   -0.12496E-03 20472   0.692E-02    0.349E-02
DAV:   2    -0.628145701947E+03    0.31666E-06   -0.54286E-05 12120   0.223E-02
  83 F= -.62814570E+03 E0= -.62814570E+03  d E =0.858181E-05  mag=    20.0000
       N       E                     dE             d eps       ncg     rms          rms(c)
DAV:   1    -0.628145770124E+03   -0.67860E-04   -0.19482E-02 21528   0.274E-01    0.467E-02
DAV:   2    -0.628145827839E+03   -0.57715E-04   -0.48651E-04 18552   0.480E-02
  84 F= -.62814583E+03 E0= -.62814583E+03  d E =-.125892E-03  mag=    20.0000
       N       E                     dE             d eps       ncg     rms          rms(c)
DAV:   1    -0.628145896638E+03   -0.12651E-03   -0.24771E-02 21576   0.306E-01    0.681E-02
DAV:   2    -0.628145972275E+03   -0.75637E-04   -0.66945E-04 23448   0.585E-02
  85 F= -.62814597E+03 E0= -.62814597E+03  d E =-.144436E-03  mag=    20.0000
       N       E                     dE             d eps       ncg     rms          rms(c)
DAV:   1    -0.628146010689E+03   -0.11405E-03   -0.20118E-02 21528   0.274E-01    0.677E-02
DAV:   2    -0.628146087182E+03   -0.76493E-04   -0.51927E-04 19800   0.507E-02
  86 F= -.62814609E+03 E0= -.62814609E+03  d E =-.114907E-03  mag=    20.0000
       N       E                     dE             d eps       ncg     rms          rms(c)
DAV:   1    -0.628146144231E+03   -0.13354E-03   -0.11416E-02 21504   0.208E-01    0.440E-02
DAV:   2    -0.628146178954E+03   -0.34723E-04   -0.27822E-04 15240   0.398E-02
  87 F= -.62814618E+03 E0= -.62814618E+03  d E =-.917716E-04  mag=    20.0000
       N       E                     dE             d eps       ncg     rms          rms(c)
DAV:   1    -0.628146188898E+03   -0.44667E-04   -0.19336E-04 13884   0.300E-02    0.191E-02
DAV:   2    -0.628146189888E+03   -0.99021E-06   -0.26622E-05 11472   0.161E-02
  88 F= -.62814619E+03 E0= -.62814619E+03  d E =-.109347E-04  mag=    20.0000
       N       E                     dE             d eps       ncg     rms          rms(c)
DAV:   1    -0.628146167872E+03    0.21026E-04   -0.32613E-02 21504   0.348E-01    0.842E-02
DAV:   2    -0.628146311491E+03   -0.14362E-03   -0.99184E-04 24828   0.712E-02    0.572E-02
DAV:   3    -0.628146322278E+03   -0.10787E-04   -0.57564E-05 12600   0.252E-02
  89 F= -.62814632E+03 E0= -.62814632E+03  d E =-.132389E-03  mag=    20.0000
       N       E                     dE             d eps       ncg     rms          rms(c)
DAV:   1    -0.628146347175E+03   -0.35684E-04   -0.13167E-02 21504   0.222E-01    0.662E-02
DAV:   2    -0.628146399347E+03   -0.52173E-04   -0.35648E-04 16368   0.457E-02
  90 F= -.62814640E+03 E0= -.62814640E+03  d E =-.770696E-04  mag=    20.0000
       N       E                     dE             d eps       ncg     rms          rms(c)
DAV:   1    -0.628146454186E+03   -0.10701E-03   -0.18611E-02 21540   0.267E-01    0.552E-02
DAV:   2    -0.628146506160E+03   -0.51974E-04   -0.46895E-04 20088   0.474E-02
  91 F= -.62814651E+03 E0= -.62814651E+03  d E =-.106813E-03  mag=    20.0000
       N       E                     dE             d eps       ncg     rms          rms(c)
DAV:   1    -0.628146558704E+03   -0.10452E-03   -0.27848E-02 21504   0.326E-01    0.601E-02
DAV:   2    -0.628146647048E+03   -0.88344E-04   -0.85418E-04 24948   0.671E-02
  92 F= -.62814665E+03 E0= -.62814665E+03  d E =-.140888E-03  mag=    20.0000
       N       E                     dE             d eps       ncg     rms          rms(c)
DAV:   1    -0.628146677012E+03   -0.11831E-03   -0.74074E-04 19836   0.557E-02    0.279E-02
DAV:   2    -0.628146670914E+03    0.60984E-05   -0.57314E-05 11508   0.202E-02
  93 F= -.62814667E+03 E0= -.62814667E+03  d E =-.238656E-04  mag=    20.0000
       N       E                     dE             d eps       ncg     rms          rms(c)
DAV:   1    -0.628146717670E+03   -0.40658E-04   -0.52841E-02 21504   0.454E-01    0.616E-02
DAV:   2    -0.628146848057E+03   -0.13039E-03   -0.14769E-03 24756   0.835E-02    0.445E-02
DAV:   3    -0.628146845627E+03    0.24301E-05   -0.53043E-05 12036   0.240E-02
  94 F= -.62814685E+03 E0= -.62814685E+03  d E =-.174713E-03  mag=    20.0000
       N       E                     dE             d eps       ncg     rms          rms(c)
DAV:   1    -0.628146871381E+03   -0.23324E-04   -0.15834E-02 21648   0.242E-01    0.637E-02
DAV:   2    -0.628146931048E+03   -0.59667E-04   -0.39577E-04 19632   0.504E-02
  95 F= -.62814693E+03 E0= -.62814693E+03  d E =-.854210E-04  mag=    20.0000
       N       E                     dE             d eps       ncg     rms          rms(c)
DAV:   1    -0.628146992994E+03   -0.12161E-03   -0.95986E-03 21648   0.193E-01    0.506E-02
DAV:   2    -0.628147008503E+03   -0.15510E-04   -0.29017E-04 15336   0.434E-02
  96 F= -.62814701E+03 E0= -.62814701E+03  d E =-.774553E-04  mag=    20.0000
       N       E                     dE             d eps       ncg     rms          rms(c)
DAV:   1    -0.628147060033E+03   -0.67039E-04   -0.36666E-02 21504   0.377E-01    0.659E-02
DAV:   2    -0.628147139017E+03   -0.78985E-04   -0.10988E-03 24456   0.725E-02    0.445E-02
DAV:   3    -0.628147136094E+03    0.29230E-05   -0.47177E-05 11904   0.226E-02
  97 F= -.62814714E+03 E0= -.62814714E+03  d E =-.127591E-03  mag=    20.0000
       N       E                     dE             d eps       ncg     rms          rms(c)
DAV:   1    -0.628147202233E+03   -0.63216E-04   -0.38461E-03 21576   0.124E-01    0.324E-02
DAV:   2    -0.628147197154E+03    0.50788E-05   -0.11683E-04 12192   0.291E-02
  98 F= -.62814720E+03 E0= -.62814720E+03  d E =-.610599E-04  mag=    20.0000
       N       E                     dE             d eps       ncg     rms          rms(c)
DAV:   1    -0.628147259741E+03   -0.57508E-04   -0.15681E-02 21504   0.249E-01    0.519E-02
DAV:   2    -0.628147273885E+03   -0.14144E-04   -0.48118E-04 21672   0.522E-02
  99 F= -.62814727E+03 E0= -.62814727E+03  d E =-.767304E-04  mag=    20.0000
       N       E                     dE             d eps       ncg     rms          rms(c)
DAV:   1    -0.628147329396E+03   -0.69656E-04   -0.90622E-03 21576   0.186E-01    0.424E-02
DAV:   2    -0.628147333093E+03   -0.36969E-05   -0.42976E-04 19428   0.523E-02
 100 F= -.62814733E+03 E0= -.62814733E+03  d E =-.592087E-04  mag=    20.0000
       N       E                     dE             d eps       ncg     rms          rms(c)
DAV:   1    -0.628147383377E+03   -0.53980E-04   -0.23397E-02 21528   0.300E-01    0.487E-02
DAV:   2    -0.628147451179E+03   -0.67802E-04   -0.66125E-04 21624   0.563E-02
 101 F= -.62814745E+03 E0= -.62814745E+03  d E =-.118086E-03  mag=    20.0000
       N       E                     dE             d eps       ncg     rms          rms(c)
DAV:   1    -0.628147465551E+03   -0.82174E-04   -0.12902E-03 19908   0.695E-02    0.250E-02
DAV:   2    -0.628147463049E+03    0.25016E-05   -0.55377E-05 11568   0.217E-02
 102 F= -.62814746E+03 E0= -.62814746E+03  d E =-.118701E-04  mag=    20.0000
       N       E                     dE             d eps       ncg     rms          rms(c)
DAV:   1    -0.628147489124E+03   -0.23574E-04   -0.10894E-02 21528   0.185E-01    0.126E-01
DAV:   2    -0.628147469020E+03    0.20104E-04   -0.86827E-04 26628   0.770E-02
 103 F= -.62814747E+03 E0= -.62814747E+03  d E =-.597130E-05  mag=    20.0000
       N       E                     dE             d eps       ncg     rms          rms(c)
DAV:   1    -0.628147532014E+03   -0.42890E-04   -0.10663E-02 21708   0.208E-01    0.590E-02
DAV:   2    -0.628147541525E+03   -0.95110E-05   -0.39623E-04 20856   0.572E-02
 104 F= -.62814754E+03 E0= -.62814754E+03  d E =-.725049E-04  mag=    20.0000
       N       E                     dE             d eps       ncg     rms          rms(c)
DAV:   1    -0.628147684438E+03   -0.15242E-03   -0.26768E-02 21900   0.334E-01    0.101E-01
DAV:   2    -0.628147631046E+03    0.53392E-04   -0.12628E-03 27948   0.871E-02    0.824E-02
DAV:   3    -0.628147612072E+03    0.18974E-04   -0.12592E-04 15048   0.386E-02
 105 F= -.62814761E+03 E0= -.62814761E+03  d E =-.705468E-04  mag=    20.0000
       N       E                     dE             d eps       ncg     rms          rms(c)
DAV:   1    -0.628147714842E+03   -0.83796E-04   -0.10459E-02 21624   0.206E-01    0.503E-02
DAV:   2    -0.628147712166E+03    0.26753E-05   -0.34137E-04 19068   0.491E-02
 106 F= -.62814771E+03 E0= -.62814771E+03  d E =-.100095E-03  mag=    20.0000
       N       E                     dE             d eps       ncg     rms          rms(c)
DAV:   1    -0.628147733492E+03   -0.18650E-04   -0.97180E-03 21564   0.196E-01    0.444E-02
DAV:   2    -0.628147746300E+03   -0.12808E-04   -0.30166E-04 15744   0.471E-02
 107 F= -.62814775E+03 E0= -.62814775E+03  d E =-.341338E-04  mag=    20.0000
       N       E                     dE             d eps       ncg     rms          rms(c)
DAV:   1    -0.628147777269E+03   -0.43776E-04   -0.40046E-02 21504   0.395E-01    0.723E-02
DAV:   2    -0.628147881484E+03   -0.10422E-03   -0.18443E-03 29592   0.107E-01    0.933E-02
DAV:   3    -0.628147855868E+03    0.25617E-04   -0.12443E-04 13548   0.320E-02
 108 F= -.62814786E+03 E0= -.62814786E+03  d E =-.109567E-03  mag=    20.0000
       N       E                     dE             d eps       ncg     rms          rms(c)
DAV:   1    -0.628147903924E+03   -0.22440E-04   -0.12453E-02 21312   0.211E-01    0.442E-02
DAV:   2    -0.628147951718E+03   -0.47793E-04   -0.85472E-04 26472   0.659E-02
 109 F= -.62814795E+03 E0= -.62814795E+03  d E =-.958500E-04  mag=    20.0000
       N       E                     dE             d eps       ncg     rms          rms(c)
DAV:   1    -0.628148001595E+03   -0.97671E-04   -0.18918E-02 21552   0.273E-01    0.580E-02
DAV:   2    -0.628148031418E+03   -0.29823E-04   -0.78527E-04 24912   0.611E-02
 110 F= -.62814803E+03 E0= -.62814803E+03  d E =-.797004E-04  mag=    20.0000
       N       E                     dE             d eps       ncg     rms          rms(c)
DAV:   1    -0.628148070084E+03   -0.68488E-04   -0.10247E-02 21552   0.202E-01    0.484E-02
DAV:   2    -0.628148078006E+03   -0.79223E-05   -0.33706E-04 18252   0.475E-02
 111 F= -.62814808E+03 E0= -.62814808E+03  d E =-.465879E-04  mag=    20.0000
       N       E                     dE             d eps       ncg     rms          rms(c)
DAV:   1    -0.628148075636E+03   -0.55520E-05   -0.63742E-04 19452   0.512E-02    0.238E-02
DAV:   2    -0.628148075885E+03   -0.24975E-06   -0.34668E-05 11400   0.156E-02
 112 F= -.62814808E+03 E0= -.62814808E+03  d E =0.212059E-05  mag=    20.0000
       N       E                     dE             d eps       ncg     rms          rms(c)
DAV:   1    -0.628148091895E+03   -0.16259E-04   -0.33923E-02 21504   0.362E-01    0.450E-02
DAV:   2    -0.628148187959E+03   -0.96064E-04   -0.12139E-03 27432   0.811E-02    0.620E-02
DAV:   3    -0.628148180760E+03    0.71992E-05   -0.69256E-05 12156   0.217E-02
 113 F= -.62814818E+03 E0= -.62814818E+03  d E =-.104875E-03  mag=    20.0000
       N       E                     dE             d eps       ncg     rms          rms(c)
DAV:   1    -0.628148219570E+03   -0.31611E-04   -0.66225E-03 20952   0.158E-01    0.378E-02
DAV:   2    -0.628148247932E+03   -0.28362E-04   -0.46945E-04 22368   0.499E-02
 114 F= -.62814825E+03 E0= -.62814825E+03  d E =-.671721E-04  mag=    20.0000
       N       E                     dE             d eps       ncg     rms          rms(c)
DAV:   1    -0.628148270561E+03   -0.50990E-04   -0.14990E-02 21528   0.239E-01    0.501E-02
DAV:   2    -0.628148311755E+03   -0.41194E-04   -0.43359E-04 18564   0.493E-02
 115 F= -.62814831E+03 E0= -.62814831E+03  d E =-.638226E-04  mag=    20.0000
