       N       E                     dE             d eps       ncg     rms          rms(c)
DAV:   1     0.550133577484E+04    0.55013E+04   -0.19763E+05 10752   0.125E+03
DAV:   2     0.479111652959E+03   -0.50222E+04   -0.46182E+04 11148   0.348E+02
DAV:   3    -0.722283904829E+03   -0.12014E+04   -0.11635E+04 12636   0.178E+02
DAV:   4    -0.824876095717E+03   -0.10259E+03   -0.10114E+03 16080   0.593E+01
DAV:   5    -0.828679633723E+03   -0.38035E+01   -0.37595E+01 17004   0.129E+01
DAV:   6    -0.828845421109E+03   -0.16579E+00   -0.16461E+00 17016   0.237E+00
DAV:   7    -0.828853845128E+03   -0.84240E-02   -0.83958E-02 17088   0.541E-01
DAV:   8    -0.828854390666E+03   -0.54554E-03   -0.54465E-03 13992   0.120E-01
DAV:   9    -0.828854429551E+03   -0.38885E-04   -0.38829E-04 10080   0.368E-02
DAV:  10    -0.828854433701E+03   -0.41495E-05   -0.41339E-05  8832   0.170E-02
DAV:  11    -0.828854435290E+03   -0.15893E-05   -0.15825E-05  8208   0.117E-02
DAV:  12    -0.828854436208E+03   -0.91820E-06   -0.91532E-06  7980   0.883E-03    0.114E+02
DAV:  13    -0.628766739784E+03    0.20009E+03   -0.12676E+03 16032   0.832E+01    0.861E+01
DAV:  14    -0.741412394891E+03   -0.11265E+03   -0.22686E+03 18024   0.122E+02    0.128E+02
DAV:  15    -0.665001698169E+03    0.76411E+02   -0.78587E+02 16416   0.820E+01    0.532E+01
DAV:  16    -0.660409375768E+03    0.45923E+01   -0.12385E+02 16344   0.587E+01    0.524E+01
DAV:  17    -0.652357416917E+03    0.80520E+01   -0.73007E+01 15720   0.175E+01    0.481E+01
DAV:  18    -0.660360915631E+03   -0.80035E+01   -0.51315E+01 15564   0.232E+01    0.365E+01
DAV:  19    -0.631873900264E+03    0.28487E+02   -0.61040E+01 16284   0.261E+01    0.215E+01
DAV:  20    -0.632086362016E+03   -0.21246E+00   -0.19475E+01 15396   0.667E+00    0.195E+01
DAV:  21    -0.629179593497E+03    0.29068E+01   -0.20532E+00 16872   0.658E+00    0.147E+01
DAV:  22    -0.625421590853E+03    0.37580E+01   -0.40056E+00 17628   0.106E+01    0.887E+00
DAV:  23    -0.624535540268E+03    0.88605E+00   -0.50326E+00 15636   0.510E+00    0.681E+00
DAV:  24    -0.624651393988E+03   -0.11585E+00   -0.10224E+00 13512   0.201E+00    0.562E+00
DAV:  25    -0.624329580356E+03    0.32181E+00   -0.11900E-01 16440   0.141E+00    0.541E+00
DAV:  26    -0.623720703184E+03    0.60888E+00   -0.24403E-01 16860   0.247E+00    0.452E+00
DAV:  27    -0.623170271162E+03    0.55043E+00   -0.41117E-01 17496   0.273E+00    0.385E+00
DAV:  28    -0.623037782035E+03    0.13249E+00   -0.51941E-01 15888   0.144E+00    0.265E+00
DAV:  29    -0.623007510864E+03    0.30271E-01   -0.64123E-02 14052   0.554E-01    0.243E+00
DAV:  30    -0.622713010818E+03    0.29450E+00   -0.11179E-01 18420   0.218E+00    0.199E+00
DAV:  31    -0.622581697631E+03    0.13131E+00   -0.23187E-01 17520   0.147E+00    0.158E+00
DAV:  32    -0.622524741634E+03    0.56956E-01   -0.11269E-01 16332   0.112E+00    0.156E+00
DAV:  33    -0.622530579135E+03   -0.58375E-02   -0.48903E-02 12492   0.429E-01    0.141E+00
DAV:  34    -0.622527330522E+03    0.32486E-02   -0.35911E-02 17256   0.909E-01    0.276E+00
DAV:  35    -0.622529398917E+03   -0.20684E-02   -0.15225E-02 15648   0.219E-01    0.278E+00
DAV:  36    -0.622576145886E+03   -0.46747E-01   -0.51289E-02 18648   0.616E-01    0.396E+00
DAV:  37    -0.622591680254E+03   -0.15534E-01   -0.54788E-02 14244   0.433E-01    0.403E+00
DAV:  38    -0.622593382921E+03   -0.17027E-02   -0.47118E-03 14028   0.145E-01    0.408E+00
DAV:  39    -0.622594554824E+03   -0.11719E-02   -0.16117E-04  8688   0.267E-02    0.411E+00
DAV:  40    -0.622604593231E+03   -0.10038E-01   -0.47175E-04  8328   0.562E-02    0.429E+00
DAV:  41    -0.622610311851E+03   -0.57186E-02   -0.26185E-04  8340   0.454E-02    0.441E+00
DAV:  42    -0.622678996592E+03   -0.68685E-01   -0.24851E-02 16368   0.405E-01    0.538E+00
DAV:  43    -0.622662038003E+03    0.16959E-01   -0.53115E-03 15096   0.155E-01    0.521E+00
DAV:  44    -0.622649645180E+03    0.12393E-01   -0.17787E-02 14796   0.245E-01    0.509E+00
DAV:  45    -0.622652473263E+03   -0.28281E-02   -0.10289E-03 11592   0.673E-02    0.512E+00
DAV:  46    -0.622645068721E+03    0.74045E-02   -0.42574E-04  7740   0.583E-02    0.500E+00
DAV:  47    -0.622631838417E+03    0.13230E-01   -0.27435E-03 15396   0.115E-01    0.477E+00
DAV:  48    -0.622624937516E+03    0.69009E-02   -0.19352E-03 12348   0.699E-02    0.467E+00
DAV:  49    -0.622612983641E+03    0.11954E-01   -0.16735E-02 14856   0.255E-01    0.458E+00
DAV:  50    -0.622603046535E+03    0.99371E-02   -0.36621E-02 14340   0.378E-01    0.469E+00
DAV:  51    -0.622557401272E+03    0.45645E-01   -0.21911E-02 18192   0.415E-01    0.381E+00
DAV:  52    -0.622516322853E+03    0.41078E-01   -0.67704E-02 18156   0.544E-01    0.249E+00
DAV:  53    -0.622513315132E+03    0.30077E-02   -0.18126E-02 14736   0.249E-01    0.213E+00
DAV:  54    -0.622514061435E+03   -0.74630E-03   -0.48020E-03 16260   0.251E-01    0.196E+00
DAV:  55    -0.622516598275E+03   -0.25368E-02   -0.40438E-02 15420   0.517E-01    0.166E+00
DAV:  56    -0.622515304340E+03    0.12939E-02   -0.99232E-03 12708   0.192E-01    0.152E+00
DAV:  57    -0.622513996211E+03    0.13081E-02   -0.60562E-04 12132   0.505E-02    0.146E+00
DAV:  58    -0.622524618793E+03   -0.10623E-01   -0.54664E-03 18180   0.311E-01    0.178E+00
DAV:  59    -0.622521640352E+03    0.29784E-02   -0.31119E-03 13668   0.105E-01    0.166E+00
DAV:  60    -0.622515731294E+03    0.59091E-02   -0.11775E-03 10092   0.102E-01    0.141E+00
DAV:  61    -0.622510215825E+03    0.55155E-02   -0.78875E-03 15912   0.177E-01    0.131E+00
DAV:  62    -0.622504758574E+03    0.54573E-02   -0.65823E-03 15684   0.158E-01    0.116E+00
DAV:  63    -0.622491492635E+03    0.13266E-01   -0.31553E-02 15228   0.404E-01    0.487E-01
DAV:  64    -0.622487080166E+03    0.44125E-02   -0.85516E-03 13200   0.164E-01    0.521E-01
DAV:  65    -0.622490245308E+03   -0.31651E-02   -0.10688E-03 11928   0.837E-02    0.523E-01
DAV:  66    -0.622494534891E+03   -0.42896E-02   -0.20257E-03 14856   0.962E-02    0.562E-01
DAV:  67    -0.622497443880E+03   -0.29090E-02   -0.35737E-03 13812   0.100E-01    0.660E-01
DAV:  68    -0.622499559438E+03   -0.21156E-02   -0.11315E-03 11340   0.553E-02    0.701E-01
DAV:  69    -0.622500653672E+03   -0.10942E-02   -0.29537E-04  8544   0.356E-02    0.702E-01
DAV:  70    -0.622501543124E+03   -0.88945E-03   -0.11826E-04  7032   0.270E-02    0.732E-01
DAV:  71    -0.622501841050E+03   -0.29793E-03   -0.23555E-04  6516   0.325E-02    0.692E-01
DAV:  72    -0.622500724062E+03    0.11170E-02   -0.28122E-04  8568   0.656E-02    0.581E-01
DAV:  73    -0.622499932553E+03    0.79151E-03   -0.79599E-04 12156   0.700E-02    0.455E-01
DAV:  74    -0.622500730210E+03   -0.79766E-03   -0.10126E-03  9636   0.531E-02    0.350E-01
DAV:  75    -0.622501643427E+03   -0.91322E-03   -0.24236E-03 10968   0.676E-02    0.252E-01
DAV:  76    -0.622501766293E+03   -0.12287E-03   -0.64024E-04 11220   0.420E-02    0.202E-01
DAV:  77    -0.622501726322E+03    0.39971E-04   -0.20614E-04  7140   0.320E-02
   1 F= -.62250173E+03 E0= -.62245947E+03  d E =-.622502E+03  mag=    19.5977
       N       E                     dE             d eps       ncg     rms          rms(c)
DAV:   1    -0.622804682701E+03   -0.30292E+00   -0.13499E+03 10752   0.704E+01    0.182E+01
DAV:   2    -0.625866711178E+03   -0.30620E+01   -0.87321E+01 16176   0.294E+01    0.212E+01
DAV:   3    -0.625754311067E+03    0.11240E+00   -0.17157E+01 14976   0.880E+00    0.145E+01
DAV:   4    -0.624583022411E+03    0.11713E+01   -0.43314E+00 16368   0.498E+00    0.103E+01
DAV:   5    -0.624559678410E+03    0.23344E-01   -0.32628E+00 13692   0.422E+00    0.518E+00
DAV:   6    -0.624389982468E+03    0.16970E+00   -0.10358E+00 15588   0.311E+00    0.351E+00
DAV:   7    -0.624311543418E+03    0.78439E-01   -0.12484E+00 14796   0.257E+00    0.206E+00
DAV:   8    -0.624320278337E+03   -0.87349E-02   -0.16824E-01 14652   0.134E+00    0.106E+00
DAV:   9    -0.624320257330E+03    0.21007E-04   -0.43479E-02 15360   0.440E-01    0.693E-01
DAV:  10    -0.624319586667E+03    0.67066E-03   -0.78061E-03 15420   0.266E-01    0.514E-01
DAV:  11    -0.624317194753E+03    0.23919E-02   -0.16818E-02 15876   0.281E-01    0.215E-01
DAV:  12    -0.624317681699E+03   -0.48695E-03   -0.43307E-03 14172   0.130E-01    0.155E-01
DAV:  13    -0.624317660164E+03    0.21535E-04   -0.43489E-04 10440   0.587E-02
   2 F= -.62431766E+03 E0= -.62431766E+03  d E =-.181593E+01  mag=    19.7510
       N       E                     dE             d eps       ncg     rms          rms(c)
DAV:   1    -0.628118921397E+03   -0.38012E+01   -0.17487E+02 10764   0.272E+01    0.116E+01
DAV:   2    -0.627273367317E+03    0.84555E+00   -0.14571E+01 14892   0.121E+01    0.134E+01
DAV:   3    -0.627071047106E+03    0.20232E+00   -0.37241E+00 15672   0.413E+00    0.867E+00
DAV:   4    -0.627019703503E+03    0.51344E-01   -0.17238E+00 16200   0.340E+00    0.665E+00
DAV:   5    -0.626889416198E+03    0.13029E+00   -0.54563E-01 15876   0.276E+00    0.343E+00
DAV:   6    -0.626867215344E+03    0.22201E-01   -0.40560E-01 15816   0.138E+00    0.128E+00
DAV:   7    -0.626864195085E+03    0.30203E-02   -0.83588E-02 16248   0.788E-01    0.717E-01
DAV:   8    -0.626860686201E+03    0.35089E-02   -0.18355E-02 16068   0.514E-01    0.446E-01
DAV:   9    -0.626860495794E+03    0.19041E-03   -0.74157E-03 14868   0.205E-01    0.224E-01
DAV:  10    -0.626860459765E+03    0.36029E-04   -0.22505E-03 14892   0.102E-01    0.144E-01
DAV:  11    -0.626860435882E+03    0.23883E-04   -0.99076E-04 14388   0.690E-02
   3 F= -.62686044E+03 E0= -.62686044E+03  d E =-.254278E+01  mag=    19.8390
       N       E                     dE             d eps       ncg     rms          rms(c)
DAV:   1    -0.626657808734E+03    0.20265E+00   -0.82762E+01 10752   0.174E+01    0.527E+00
DAV:   2    -0.627012925915E+03   -0.35512E+00   -0.48780E+00 14448   0.543E+00    0.620E+00
DAV:   3    -0.626955852775E+03    0.57073E-01   -0.46332E-01 14076   0.166E+00    0.408E+00
DAV:   4    -0.626928750334E+03    0.27102E-01   -0.51847E-01 14796   0.150E+00    0.244E+00
DAV:   5    -0.626911309872E+03    0.17440E-01   -0.97268E-02 14076   0.912E-01    0.116E+00
DAV:   6    -0.626902418689E+03    0.88912E-02   -0.88631E-02 15948   0.672E-01    0.647E-01
DAV:   7    -0.626902824454E+03   -0.40576E-03   -0.29484E-02 14664   0.320E-01    0.258E-01
DAV:   8    -0.626902579633E+03    0.24482E-03   -0.21432E-03 15816   0.136E-01    0.151E-01
DAV:   9    -0.626902682562E+03   -0.10293E-03   -0.19007E-03 14964   0.106E-01    0.143E-01
DAV:  10    -0.626902574094E+03    0.10847E-03   -0.56335E-04 11820   0.690E-02    0.978E-02
DAV:  11    -0.626902515340E+03    0.58754E-04   -0.81967E-04 11304   0.547E-02
   4 F= -.62690252E+03 E0= -.62690252E+03  d E =-.420795E-01  mag=    19.8953
       N       E                     dE             d eps       ncg     rms          rms(c)
DAV:   1    -0.626965588691E+03   -0.63015E-01   -0.34488E+00 10800   0.374E+00    0.136E+00
DAV:   2    -0.626957619775E+03    0.79689E-02   -0.26449E-01 14976   0.163E+00    0.157E+00
DAV:   3    -0.626953266259E+03    0.43535E-02   -0.58051E-02 14892   0.549E-01    0.955E-01
DAV:   4    -0.626951320667E+03    0.19456E-02   -0.23672E-02 16200   0.387E-01    0.713E-01
DAV:   5    -0.626949784513E+03    0.15362E-02   -0.74112E-03 15120   0.290E-01    0.367E-01
DAV:   6    -0.626949616646E+03    0.16787E-03   -0.49416E-03 15708   0.150E-01    0.151E-01
DAV:   7    -0.626949598835E+03    0.17812E-04   -0.11279E-03 14436   0.811E-02    0.780E-02
DAV:   8    -0.626949569105E+03    0.29729E-04   -0.12894E-04  7440   0.575E-02
   5 F= -.62694957E+03 E0= -.62694957E+03  d E =-.470538E-01  mag=    19.9232
       N       E                     dE             d eps       ncg     rms          rms(c)
DAV:   1    -0.626564503994E+03    0.38509E+00   -0.16117E+02 10752   0.246E+01    0.549E+00
DAV:   2    -0.626940337767E+03   -0.37583E+00   -0.86723E+00 15192   0.790E+00    0.789E+00
DAV:   3    -0.626901294772E+03    0.39043E-01   -0.10984E+00 14976   0.222E+00    0.627E+00
DAV:   4    -0.626814305109E+03    0.86990E-01   -0.19759E-01 15888   0.966E-01    0.549E+00
DAV:   5    -0.626766750315E+03    0.47555E-01   -0.53221E-01 13824   0.147E+00    0.331E+00
DAV:   6    -0.626714114699E+03    0.52636E-01   -0.40372E-01 16080   0.166E+00    0.210E+00
DAV:   7    -0.626710098461E+03    0.40162E-02   -0.16555E-01 14424   0.897E-01    0.150E+00
DAV:   8    -0.626708707429E+03    0.13910E-02   -0.21166E-02 15852   0.385E-01    0.998E-01
DAV:   9    -0.626707093940E+03    0.16135E-02   -0.81054E-03 16260   0.222E-01    0.678E-01
DAV:  10    -0.626705746452E+03    0.13475E-02   -0.50724E-03 16068   0.167E-01    0.462E-01
DAV:  11    -0.626705444583E+03    0.30187E-03   -0.12447E-03 15492   0.963E-02    0.270E-01
DAV:  12    -0.626705049297E+03    0.39529E-03   -0.13103E-03 15108   0.750E-02    0.164E-01
DAV:  13    -0.626705025689E+03    0.23607E-04   -0.22045E-04  7524   0.315E-02
   6 F= -.62670503E+03 E0= -.62670503E+03  d E =0.244543E+00  mag=    19.9541
       N       E                     dE             d eps       ncg     rms          rms(c)
DAV:   1    -0.627396301078E+03   -0.69125E+00   -0.93043E+01 10752   0.189E+01    0.552E+00
DAV:   2    -0.627287360346E+03    0.10894E+00   -0.55294E+00 15468   0.702E+00    0.664E+00
DAV:   3    -0.627243417611E+03    0.43943E-01   -0.12497E+00 15084   0.234E+00    0.411E+00
DAV:   4    -0.627171296577E+03    0.72121E-01   -0.47148E-01 15912   0.152E+00    0.337E+00
DAV:   5    -0.627147665893E+03    0.23631E-01   -0.16248E-01 13884   0.102E+00    0.165E+00
DAV:   6    -0.627127195576E+03    0.20470E-01   -0.10304E-01 16140   0.796E-01    0.772E-01
DAV:   7    -0.627126978809E+03    0.21677E-03   -0.60635E-02 14100   0.511E-01    0.457E-01
DAV:   8    -0.627126807928E+03    0.17088E-03   -0.59908E-03 15264   0.273E-01    0.168E-01
DAV:   9    -0.627126868439E+03   -0.60511E-04   -0.27781E-03 15444   0.120E-01    0.945E-02
DAV:  10    -0.627126825502E+03    0.42937E-04   -0.62788E-04 12096   0.614E-02
   7 F= -.62712683E+03 E0= -.62712683E+03  d E =-.421800E+00  mag=    19.9689
       N       E                     dE             d eps       ncg     rms          rms(c)
DAV:   1    -0.627185596810E+03   -0.58728E-01   -0.44483E+01 10752   0.132E+01    0.553E+00
DAV:   2    -0.627184888109E+03    0.70870E-03   -0.44065E+00 14892   0.585E+00    0.647E+00
DAV:   3    -0.627092818302E+03    0.92070E-01   -0.59049E-01 14004   0.191E+00    0.418E+00
DAV:   4    -0.627063577814E+03    0.29240E-01   -0.41468E-01 15468   0.143E+00    0.249E+00
DAV:   5    -0.627046106236E+03    0.17472E-01   -0.97133E-02 15156   0.101E+00    0.126E+00
DAV:   6    -0.627045453577E+03    0.65266E-03   -0.56370E-02 14988   0.516E-01    0.529E-01
DAV:   7    -0.627045783405E+03   -0.32983E-03   -0.96031E-03 16320   0.218E-01    0.252E-01
DAV:   8    -0.627045500236E+03    0.28317E-03   -0.19649E-03 15948   0.179E-01    0.198E-01
DAV:   9    -0.627045474439E+03    0.25797E-04   -0.68657E-04 13368   0.840E-02
   8 F= -.62704547E+03 E0= -.62704547E+03  d E =0.813511E-01  mag=    19.9783
       N       E                     dE             d eps       ncg     rms          rms(c)
DAV:   1    -0.627012154539E+03    0.33346E-01   -0.92625E+01 10752   0.182E+01    0.523E+00
DAV:   2    -0.627267260712E+03   -0.25511E+00   -0.55267E+00 15024   0.602E+00    0.696E+00
DAV:   3    -0.627212116241E+03    0.55144E-01   -0.66475E-01 14652   0.185E+00    0.526E+00
DAV:   4    -0.627152514241E+03    0.59602E-01   -0.19516E-01 14988   0.873E-01    0.429E+00
DAV:   5    -0.627125761213E+03    0.26753E-01   -0.22233E-01 14532   0.107E+00    0.201E+00
DAV:   6    -0.627107764073E+03    0.17997E-01   -0.20971E-01 16272   0.118E+00    0.103E+00
DAV:   7    -0.627106564397E+03    0.11997E-02   -0.64977E-02 14628   0.562E-01    0.715E-01
DAV:   8    -0.627106233940E+03    0.33046E-03   -0.55027E-03 15552   0.205E-01    0.471E-01
DAV:   9    -0.627105850641E+03    0.38330E-03   -0.49882E-03 15696   0.165E-01    0.262E-01
DAV:  10    -0.627105724738E+03    0.12590E-03   -0.16765E-03 15420   0.103E-01    0.191E-01
DAV:  11    -0.627105570022E+03    0.15472E-03   -0.51414E-04 11208   0.636E-02    0.976E-02
DAV:  12    -0.627105514314E+03    0.55708E-04   -0.36981E-04  8832   0.436E-02
   9 F= -.62710551E+03 E0= -.62710551E+03  d E =-.600399E-01  mag=    19.9862
       N       E                     dE             d eps       ncg     rms          rms(c)
DAV:   1    -0.627401705227E+03   -0.29614E+00   -0.84136E+01 10752   0.180E+01    0.582E+00
DAV:   2    -0.627321268676E+03    0.80437E-01   -0.53150E+00 15636   0.644E+00    0.645E+00
DAV:   3    -0.627255187237E+03    0.66081E-01   -0.10326E+00 15312   0.231E+00    0.381E+00
DAV:   4    -0.627195147678E+03    0.60040E-01   -0.41305E-01 15984   0.137E+00    0.294E+00
DAV:   5    -0.627175300973E+03    0.19847E-01   -0.10824E-01 13752   0.881E-01    0.134E+00
DAV:   6    -0.627162302088E+03    0.12999E-01   -0.81662E-02 16188   0.746E-01    0.469E-01
DAV:   7    -0.627163982917E+03   -0.16808E-02   -0.36093E-02 14724   0.422E-01    0.361E-01
DAV:   8    -0.627163720586E+03    0.26233E-03   -0.35931E-03 15144   0.215E-01    0.162E-01
DAV:   9    -0.627163755767E+03   -0.35181E-04   -0.21291E-03 15336   0.995E-02    0.872E-02
DAV:  10    -0.627163717324E+03    0.38443E-04   -0.31690E-04  9192   0.497E-02
  10 F= -.62716372E+03 E0= -.62716372E+03  d E =-.582030E-01  mag=    19.9907
       N       E                     dE             d eps       ncg     rms          rms(c)
DAV:   1    -0.627585381417E+03   -0.42163E+00   -0.21196E+01 10752   0.953E+00    0.380E+00
DAV:   2    -0.627443102168E+03    0.14228E+00   -0.18760E+00 15540   0.415E+00    0.395E+00
DAV:   3    -0.627398041151E+03    0.45061E-01   -0.35348E-01 15132   0.142E+00    0.185E+00
DAV:   4    -0.627382952725E+03    0.15088E-01   -0.99337E-02 16224   0.787E-01    0.145E+00
DAV:   5    -0.627379203812E+03    0.37489E-02   -0.23589E-02 15120   0.449E-01    0.682E-01
DAV:   6    -0.627376888312E+03    0.23155E-02   -0.16279E-02 16044   0.311E-01    0.224E-01
DAV:   7    -0.627377142000E+03   -0.25369E-03   -0.40220E-03 15228   0.169E-01    0.150E-01
DAV:   8    -0.627377162496E+03   -0.20496E-04   -0.54401E-04 11952   0.777E-02
  11 F= -.62737716E+03 E0= -.62737716E+03  d E =-.213445E+00  mag=    19.9932
       N       E                     dE             d eps       ncg     rms          rms(c)
DAV:   1    -0.627231082444E+03    0.14606E+00   -0.32396E+01 10752   0.109E+01    0.293E+00
DAV:   2    -0.627324325203E+03   -0.93243E-01   -0.18272E+00 15024   0.343E+00    0.386E+00
DAV:   3    -0.627300193873E+03    0.24131E-01   -0.20416E-01 14400   0.108E+00    0.282E+00
DAV:   4    -0.627283434683E+03    0.16759E-01   -0.58925E-02 14940   0.463E-01    0.226E+00
DAV:   5    -0.627274490940E+03    0.89437E-02   -0.46568E-02 14652   0.527E-01    0.107E+00
DAV:   6    -0.627269454081E+03    0.50369E-02   -0.58905E-02 15900   0.611E-01    0.442E-01
DAV:   7    -0.627269488730E+03   -0.34649E-04   -0.16027E-02 14592   0.277E-01    0.324E-01
DAV:   8    -0.627269383204E+03    0.10553E-03   -0.10846E-03 14352   0.918E-02    0.220E-01
DAV:   9    -0.627269264298E+03    0.11891E-03   -0.13542E-03 13476   0.848E-02    0.116E-01
DAV:  10    -0.627269269572E+03   -0.52738E-05   -0.44475E-04 10392   0.550E-02
  12 F= -.62726927E+03 E0= -.62726927E+03  d E =0.107893E+00  mag=    19.9954
       N       E                     dE             d eps       ncg     rms          rms(c)
DAV:   1    -0.627375745973E+03   -0.10648E+00   -0.32660E+01 10752   0.107E+01    0.331E+00
DAV:   2    -0.627452697226E+03   -0.76951E-01   -0.19418E+00 15204   0.342E+00    0.384E+00
DAV:   3    -0.627429378860E+03    0.23318E-01   -0.24455E-01 14760   0.121E+00    0.271E+00
DAV:   4    -0.627408351541E+03    0.21027E-01   -0.10322E-01 15108   0.631E-01    0.202E+00
DAV:   5    -0.627400963928E+03    0.73876E-02   -0.75272E-02 14964   0.621E-01    0.861E-01
DAV:   6    -0.627396334335E+03    0.46296E-02   -0.45377E-02 16500   0.586E-01    0.393E-01
DAV:   7    -0.627396531117E+03   -0.19678E-03   -0.25720E-02 14964   0.353E-01    0.299E-01
DAV:   8    -0.627396257518E+03    0.27360E-03   -0.27525E-03 15300   0.155E-01    0.114E-01
DAV:   9    -0.627396331442E+03   -0.73924E-04   -0.18814E-03 15036   0.921E-02    0.897E-02
DAV:  10    -0.627396272979E+03    0.58463E-04   -0.19551E-04  7368   0.485E-02
  13 F= -.62739627E+03 E0= -.62739627E+03  d E =-.127003E+00  mag=    19.9969
       N       E                     dE             d eps       ncg     rms          rms(c)
DAV:   1    -0.627491623258E+03   -0.95292E-01   -0.97168E+00 10752   0.635E+00    0.211E+00
DAV:   2    -0.627462879977E+03    0.28743E-01   -0.61692E-01 15468   0.221E+00    0.216E+00
DAV:   3    -0.627451820892E+03    0.11059E-01   -0.88658E-02 15180   0.761E-01    0.108E+00
DAV:   4    -0.627447188828E+03    0.46321E-02   -0.31105E-02 16152   0.401E-01    0.790E-01
DAV:   5    -0.627446083656E+03    0.11052E-02   -0.74975E-03 14964   0.251E-01    0.373E-01
DAV:   6    -0.627445536247E+03    0.54741E-03   -0.54885E-03 16272   0.193E-01    0.109E-01
DAV:   7    -0.627445597929E+03   -0.61682E-04   -0.10434E-03 13920   0.931E-02    0.743E-02
DAV:   8    -0.627445604495E+03   -0.65663E-05   -0.18062E-04  7056   0.368E-02
  14 F= -.62744560E+03 E0= -.62744560E+03  d E =-.493315E-01  mag=    19.9978
       N       E                     dE             d eps       ncg     rms          rms(c)
DAV:   1    -0.627460448471E+03   -0.14851E-01   -0.39640E-01 11040   0.134E+00    0.611E-01
DAV:   2    -0.627456022593E+03    0.44259E-02   -0.36326E-02 15792   0.520E-01    0.531E-01
DAV:   3    -0.627455076491E+03    0.94610E-03   -0.75136E-03 15432   0.217E-01    0.207E-01
DAV:   4    -0.627454880377E+03    0.19611E-03   -0.76968E-04 14160   0.787E-02    0.151E-01
DAV:   5    -0.627454834378E+03    0.45999E-04   -0.19487E-04  7236   0.531E-02
  15 F= -.62745483E+03 E0= -.62745483E+03  d E =-.922988E-02  mag=    19.9981
       N       E                     dE             d eps       ncg     rms          rms(c)
DAV:   1    -0.627458602757E+03   -0.37224E-02   -0.53914E+00 10752   0.459E+00    0.564E-01
DAV:   2    -0.627472939654E+03   -0.14337E-01   -0.14372E-01 13284   0.839E-01    0.387E-01
DAV:   3    -0.627473100775E+03   -0.16112E-03   -0.60986E-03 15300   0.185E-01    0.235E-01
DAV:   4    -0.627472808114E+03    0.29266E-03   -0.59527E-04 12660   0.715E-02    0.151E-01
DAV:   5    -0.627472547702E+03    0.26041E-03   -0.74444E-04 12444   0.704E-02    0.625E-02
DAV:   6    -0.627472561419E+03   -0.13717E-04   -0.41369E-04 10956   0.510E-02
  16 F= -.62747256E+03 E0= -.62747256E+03  d E =-.177270E-01  mag=    19.9985
       N       E                     dE             d eps       ncg     rms          rms(c)
DAV:   1    -0.627451829403E+03    0.20718E-01   -0.21484E+01 10752   0.913E+00    0.146E+00
DAV:   2    -0.627501350422E+03   -0.49521E-01   -0.59205E-01 13584   0.172E+00    0.103E+00
DAV:   3    -0.627501570082E+03   -0.21966E-03   -0.45132E-02 14556   0.499E-01    0.451E-01
DAV:   4    -0.627499337756E+03    0.22323E-02   -0.97343E-03 15960   0.232E-01    0.310E-01
DAV:   5    -0.627498578550E+03    0.75921E-03   -0.32623E-03 14532   0.149E-01    0.168E-01
DAV:   6    -0.627498547169E+03    0.31381E-04   -0.10580E-03 14832   0.719E-02    0.784E-02
DAV:   7    -0.627498546229E+03    0.94029E-06   -0.20776E-04  6960   0.396E-02
  17 F= -.62749855E+03 E0= -.62749855E+03  d E =-.259848E-01  mag=    19.9989
       N       E                     dE             d eps       ncg     rms          rms(c)
DAV:   1    -0.627497671730E+03    0.87544E-03   -0.21917E+00 10752   0.292E+00    0.746E-01
DAV:   2    -0.627499021169E+03   -0.13494E-02   -0.98736E-02 15420   0.895E-01    0.786E-01
DAV:   3    -0.627498008611E+03    0.10126E-02   -0.19681E-02 14868   0.315E-01    0.419E-01
DAV:   4    -0.627497130579E+03    0.87803E-03   -0.64591E-03 16068   0.187E-01    0.327E-01
DAV:   5    -0.627496783217E+03    0.34736E-03   -0.13982E-03 13416   0.111E-01    0.146E-01
DAV:   6    -0.627496678291E+03    0.10493E-03   -0.10801E-03 14892   0.771E-02    0.578E-02
DAV:   7    -0.627496692148E+03   -0.13856E-04   -0.33597E-04  9180   0.457E-02
  18 F= -.62749669E+03 E0= -.62749669E+03  d E =0.185408E-02  mag=    19.9991
       N       E                     dE             d eps       ncg     rms          rms(c)
DAV:   1    -0.627499815107E+03   -0.31368E-02   -0.36241E+00 10752   0.375E+00    0.452E-01
DAV:   2    -0.627509231724E+03   -0.94166E-02   -0.95269E-02 12144   0.656E-01    0.291E-01
DAV:   3    -0.627509245636E+03   -0.13912E-04   -0.32736E-03 15564   0.121E-01    0.169E-01
DAV:   4    -0.627508994129E+03    0.25151E-03   -0.49129E-04 10680   0.557E-02    0.113E-01
DAV:   5    -0.627508900557E+03    0.93571E-04   -0.41501E-04  9480   0.495E-02
  19 F= -.62750890E+03 E0= -.62750890E+03  d E =-.122084E-01  mag=    19.9993
       N       E                     dE             d eps       ncg     rms          rms(c)
DAV:   1    -0.627501735223E+03    0.72589E-02   -0.79198E+00 10752   0.552E+00    0.865E-01
DAV:   2    -0.627522627429E+03   -0.20892E-01   -0.21409E-01 12720   0.994E-01    0.587E-01
DAV:   3    -0.627523133488E+03   -0.50606E-03   -0.10815E-02 15336   0.248E-01    0.325E-01
DAV:   4    -0.627522423486E+03    0.71000E-03   -0.25568E-03 15504   0.116E-01    0.217E-01
DAV:   5    -0.627522135476E+03    0.28801E-03   -0.11463E-03 13332   0.872E-02    0.895E-02
DAV:   6    -0.627522130323E+03    0.51528E-05   -0.59143E-04 12684   0.642E-02
  20 F= -.62752213E+03 E0= -.62752213E+03  d E =-.132298E-01  mag=    19.9994
       N       E                     dE             d eps       ncg     rms          rms(c)
DAV:   1    -0.627519298166E+03    0.28373E-02   -0.79727E+00 10752   0.556E+00    0.682E-01
DAV:   2    -0.627540128074E+03   -0.20830E-01   -0.22274E-01 13236   0.105E+00    0.584E-01
DAV:   3    -0.627540144880E+03   -0.16806E-04   -0.10671E-02 14928   0.247E-01    0.333E-01
DAV:   4    -0.627539564554E+03    0.58033E-03   -0.19843E-03 15456   0.107E-01    0.243E-01
DAV:   5    -0.627539284941E+03    0.27961E-03   -0.13697E-03 13200   0.835E-02    0.104E-01
DAV:   6    -0.627539267465E+03    0.17476E-04   -0.66063E-04 13452   0.673E-02
  21 F= -.62753927E+03 E0= -.62753927E+03  d E =-.171371E-01  mag=    19.9996
       N       E                     dE             d eps       ncg     rms          rms(c)
DAV:   1    -0.627541048763E+03   -0.17638E-02   -0.21893E+00 10752   0.290E+00    0.409E-01
DAV:   2    -0.627545892726E+03   -0.48440E-02   -0.63085E-02 13932   0.600E-01    0.369E-01
DAV:   3    -0.627545914146E+03   -0.21420E-04   -0.64744E-03 14784   0.176E-01    0.193E-01
DAV:   4    -0.627545624713E+03    0.28943E-03   -0.16833E-03 15768   0.968E-02    0.146E-01
DAV:   5    -0.627545505042E+03    0.11967E-03   -0.56263E-04 12420   0.629E-02    0.695E-02
DAV:   6    -0.627545489808E+03    0.15234E-04   -0.22178E-04  7872   0.372E-02
  22 F= -.62754549E+03 E0= -.62754549E+03  d E =-.622234E-02  mag=    19.9996
       N       E                     dE             d eps       ncg     rms          rms(c)
DAV:   1    -0.627548650706E+03   -0.31457E-02   -0.37585E-01 10752   0.121E+00    0.229E-01
DAV:   2    -0.627549143417E+03   -0.49271E-03   -0.15071E-02 14340   0.356E-01    0.278E-01
DAV:   3    -0.627549112111E+03    0.31306E-04   -0.27464E-03 14160   0.118E-01    0.175E-01
DAV:   4    -0.627548995731E+03    0.11638E-03   -0.78253E-04 13668   0.683E-02    0.144E-01
DAV:   5    -0.627548949594E+03    0.46137E-04   -0.30982E-04 10512   0.536E-02
  23 F= -.62754895E+03 E0= -.62754895E+03  d E =-.345979E-02  mag=    19.9997
       N       E                     dE             d eps       ncg     rms          rms(c)
DAV:   1    -0.627550782649E+03   -0.17869E-02   -0.10457E+00 10752   0.200E+00    0.241E-01
DAV:   2    -0.627553538659E+03   -0.27560E-02   -0.28520E-02 13032   0.363E-01    0.168E-01
DAV:   3    -0.627553595507E+03   -0.56848E-04   -0.14818E-03 14724   0.800E-02    0.941E-02
DAV:   4    -0.627553510843E+03    0.84664E-04   -0.40425E-04 10248   0.501E-02
  24 F= -.62755351E+03 E0= -.62755351E+03  d E =-.456125E-02  mag=    19.9997
       N       E                     dE             d eps       ncg     rms          rms(c)
DAV:   1    -0.627555121865E+03   -0.15264E-02   -0.14353E-01 10800   0.741E-01    0.135E-01
DAV:   2    -0.627555320776E+03   -0.19891E-03   -0.45782E-03 14724   0.172E-01    0.138E-01
DAV:   3    -0.627555281859E+03    0.38917E-04   -0.48217E-04 11148   0.549E-02
  25 F= -.62755528E+03 E0= -.62755528E+03  d E =-.177102E-02  mag=    19.9998
       N       E                     dE             d eps       ncg     rms          rms(c)
DAV:   1    -0.627556901037E+03   -0.15803E-02   -0.98993E-01 10752   0.195E+00    0.291E-01
DAV:   2    -0.627559626694E+03   -0.27257E-02   -0.28840E-02 13308   0.391E-01    0.279E-01
DAV:   3    -0.627559566617E+03    0.60077E-04   -0.19479E-03 14532   0.114E-01    0.160E-01
DAV:   4    -0.627559474937E+03    0.91680E-04   -0.32717E-04  9876   0.453E-02
  26 F= -.62755947E+03 E0= -.62755947E+03  d E =-.419308E-02  mag=    19.9998
       N       E                     dE             d eps       ncg     rms          rms(c)
DAV:   1    -0.627560679589E+03   -0.11130E-02   -0.74788E-02 10836   0.534E-01    0.804E-02
DAV:   2    -0.627560862972E+03   -0.18338E-03   -0.23473E-03 14388   0.114E-01    0.815E-02
DAV:   3    -0.627560841654E+03    0.21318E-04   -0.13226E-04  7212   0.339E-02
  27 F= -.62756084E+03 E0= -.62756084E+03  d E =-.136672E-02  mag=    19.9998
       N       E                     dE             d eps       ncg     rms          rms(c)
DAV:   1    -0.627561217205E+03   -0.35423E-03   -0.26347E+00 10752   0.318E+00    0.403E-01
DAV:   2    -0.627567698127E+03   -0.64809E-02   -0.69970E-02 12780   0.566E-01    0.262E-01
DAV:   3    -0.627567691552E+03    0.65755E-05   -0.29223E-03 15228   0.138E-01    0.174E-01
DAV:   4    -0.627567548056E+03    0.14350E-03   -0.39210E-04 10188   0.481E-02    0.105E-01
DAV:   5    -0.627567451537E+03    0.96519E-04   -0.42486E-04 10260   0.540E-02
  28 F= -.62756745E+03 E0= -.62756745E+03  d E =-.660988E-02  mag=    19.9998
       N       E                     dE             d eps       ncg     rms          rms(c)
DAV:   1    -0.627569704527E+03   -0.21565E-02   -0.45180E-01 10752   0.132E+00    0.282E-01
DAV:   2    -0.627570528395E+03   -0.82387E-03   -0.12805E-02 13356   0.265E-01    0.177E-01
DAV:   3    -0.627570579404E+03   -0.51009E-04   -0.11926E-03 14820   0.105E-01    0.127E-01
DAV:   4    -0.627570535337E+03    0.44067E-04   -0.17080E-04  7836   0.328E-02
  29 F= -.62757054E+03 E0= -.62757054E+03  d E =-.308380E-02  mag=    19.9999
       N       E                     dE             d eps       ncg     rms          rms(c)
DAV:   1    -0.627572515334E+03   -0.19359E-02   -0.20702E-01 10848   0.920E-01    0.315E-01
DAV:   2    -0.627572155266E+03    0.36007E-03   -0.11378E-02 15828   0.282E-01    0.285E-01
DAV:   3    -0.627571940033E+03    0.21523E-03   -0.15518E-03 15516   0.114E-01    0.116E-01
DAV:   4    -0.627571886941E+03    0.53092E-04   -0.17903E-04  8568   0.365E-02
  30 F= -.62757189E+03 E0= -.62757189E+03  d E =-.135160E-02  mag=    19.9999
       N       E                     dE             d eps       ncg     rms          rms(c)
DAV:   1    -0.627574322682E+03   -0.23826E-02   -0.17638E-01 10992   0.851E-01    0.272E-01
DAV:   2    -0.627573970127E+03    0.35256E-03   -0.97027E-03 15888   0.258E-01    0.235E-01
DAV:   3    -0.627573793293E+03    0.17683E-03   -0.13050E-03 15168   0.102E-01    0.867E-02
DAV:   4    -0.627573760932E+03    0.32362E-04   -0.10216E-04  7728   0.344E-02
  31 F= -.62757376E+03 E0= -.62757376E+03  d E =-.187399E-02  mag=    19.9999
       N       E                     dE             d eps       ncg     rms          rms(c)
DAV:   1    -0.627575093285E+03   -0.13000E-02   -0.60516E-01 10752   0.153E+00    0.226E-01
DAV:   2    -0.627576554541E+03   -0.14613E-02   -0.16809E-02 12636   0.288E-01    0.153E-01
DAV:   3    -0.627576559070E+03   -0.45288E-05   -0.78264E-04 13260   0.749E-02
  32 F= -.62757656E+03 E0= -.62757656E+03  d E =-.279814E-02  mag=    19.9999
       N       E                     dE             d eps       ncg     rms          rms(c)
DAV:   1    -0.627577871724E+03   -0.13172E-02   -0.22004E-01 10752   0.914E-01    0.175E-01
DAV:   2    -0.627578510489E+03   -0.63876E-03   -0.66215E-03 13332   0.188E-01    0.137E-01
DAV:   3    -0.627578515641E+03   -0.51522E-05   -0.52260E-04 11604   0.640E-02
  33 F= -.62757852E+03 E0= -.62757852E+03  d E =-.195657E-02  mag=    19.9999
       N       E                     dE             d eps       ncg     rms          rms(c)
DAV:   1    -0.627579874555E+03   -0.13641E-02   -0.31700E-01 10800   0.110E+00    0.247E-01
DAV:   2    -0.627580391664E+03   -0.51711E-03   -0.85764E-03 13116   0.212E-01    0.152E-01
DAV:   3    -0.627580390694E+03    0.97007E-06   -0.71334E-04 13176   0.819E-02
  34 F= -.62758039E+03 E0= -.62758039E+03  d E =-.187505E-02  mag=    19.9999
       N       E                     dE             d eps       ncg     rms          rms(c)
DAV:   1    -0.627582572174E+03   -0.21805E-02   -0.35070E-01 10752   0.119E+00    0.298E-01
DAV:   2    -0.627582691223E+03   -0.11905E-03   -0.13052E-02 15012   0.286E-01    0.241E-01
DAV:   3    -0.627582586286E+03    0.10494E-03   -0.12501E-03 14652   0.112E-01    0.129E-01
DAV:   4    -0.627582518285E+03    0.68001E-04   -0.30994E-04  9864   0.434E-02
  35 F= -.62758252E+03 E0= -.62758252E+03  d E =-.212759E-02  mag=    19.9999
       N       E                     dE             d eps       ncg     rms          rms(c)
DAV:   1    -0.627586193620E+03   -0.36073E-02   -0.34028E-01 10980   0.119E+00    0.466E-01
DAV:   2    -0.627584868793E+03    0.13248E-02   -0.22045E-02 15912   0.401E-01    0.410E-01
DAV:   3    -0.627584417453E+03    0.45134E-03   -0.32652E-03 15468   0.165E-01    0.150E-01
DAV:   4    -0.627584332501E+03    0.84953E-04   -0.30057E-04  9900   0.489E-02
  36 F= -.62758433E+03 E0= -.62758433E+03  d E =-.181422E-02  mag=    19.9999
       N       E                     dE             d eps       ncg     rms          rms(c)
DAV:   1    -0.627586794588E+03   -0.23771E-02   -0.46326E-01 10752   0.135E+00    0.264E-01
DAV:   2    -0.627587352770E+03   -0.55818E-03   -0.17246E-02 15000   0.323E-01    0.252E-01
DAV:   3    -0.627587186315E+03    0.16646E-03   -0.17379E-03 14772   0.112E-01    0.934E-02
DAV:   4    -0.627587144523E+03    0.41792E-04   -0.98500E-05  7140   0.346E-02
  37 F= -.62758714E+03 E0= -.62758714E+03  d E =-.281202E-02  mag=    19.9999
       N       E                     dE             d eps       ncg     rms          rms(c)
DAV:   1    -0.627588479360E+03   -0.12930E-02   -0.61690E-01 10752   0.154E+00    0.185E-01
DAV:   2    -0.627590054166E+03   -0.15748E-02   -0.15818E-02 12060   0.261E-01    0.105E-01
DAV:   3    -0.627590070691E+03   -0.16525E-04   -0.53029E-04 11592   0.464E-02
  38 F= -.62759007E+03 E0= -.62759007E+03  d E =-.292617E-02  mag=    20.0000
       N       E                     dE             d eps       ncg     rms          rms(c)
DAV:   1    -0.627591114959E+03   -0.10608E-02   -0.86216E-01 10752   0.180E+00    0.259E-01
DAV:   2    -0.627593389573E+03   -0.22746E-02   -0.21554E-02 12504   0.312E-01    0.166E-01
DAV:   3    -0.627593446805E+03   -0.57232E-04   -0.10838E-03 14448   0.779E-02    0.110E-01
DAV:   4    -0.627593391944E+03    0.54860E-04   -0.10461E-04  7224   0.275E-02
  39 F= -.62759339E+03 E0= -.62759339E+03  d E =-.332125E-02  mag=    20.0000
       N       E                     dE             d eps       ncg     rms          rms(c)
DAV:   1    -0.627592797953E+03    0.64885E-03   -0.25299E-02 10872   0.315E-01    0.500E-02
DAV:   2    -0.627592889874E+03   -0.91920E-04   -0.10692E-03 12396   0.756E-02    0.522E-02
DAV:   3    -0.627592884271E+03    0.56023E-05   -0.57971E-05  6048   0.233E-02
  40 F= -.62759288E+03 E0= -.62759288E+03  d E =0.507673E-03  mag=    20.0000
       N       E                     dE             d eps       ncg     rms          rms(c)
DAV:   1    -0.627593681974E+03   -0.79210E-03   -0.57841E-01 10752   0.150E+00    0.284E-01
DAV:   2    -0.627595004370E+03   -0.13224E-02   -0.18512E-02 13668   0.315E-01    0.223E-01
DAV:   3    -0.627595002077E+03    0.22928E-05   -0.11793E-03 13848   0.103E-01    0.155E-01
DAV:   4    -0.627594942445E+03    0.59632E-04   -0.24678E-04  9084   0.364E-02
  41 F= -.62759494E+03 E0= -.62759494E+03  d E =-.205817E-02  mag=    20.0000
       N       E                     dE             d eps       ncg     rms          rms(c)
DAV:   1    -0.627596086188E+03   -0.10841E-02   -0.10361E-01 10752   0.625E-01    0.145E-01
DAV:   2    -0.627596353498E+03   -0.26731E-03   -0.35050E-03 14148   0.143E-01    0.126E-01
DAV:   3    -0.627596343240E+03    0.10258E-04   -0.25511E-04  9120   0.549E-02
  42 F= -.62759634E+03 E0= -.62759634E+03  d E =-.140079E-02  mag=    20.0000
       N       E                     dE             d eps       ncg     rms          rms(c)
DAV:   1    -0.627595736477E+03    0.61702E-03   -0.23413E-02 10776   0.302E-01    0.644E-02
DAV:   2    -0.627595787943E+03   -0.51466E-04   -0.73488E-04 11904   0.609E-02
  43 F= -.62759579E+03 E0= -.62759579E+03  d E =0.555297E-03  mag=    20.0000
       N       E                     dE             d eps       ncg     rms          rms(c)
DAV:   1    -0.627596940597E+03   -0.12041E-02   -0.52435E-01 10752   0.142E+00    0.147E-01
DAV:   2    -0.627598281643E+03   -0.13410E-02   -0.13824E-02 12540   0.245E-01    0.885E-02
DAV:   3    -0.627598285748E+03   -0.41058E-05   -0.51211E-04 11328   0.483E-02
  44 F= -.62759829E+03 E0= -.62759829E+03  d E =-.249781E-02  mag=    20.0000
       N       E                     dE             d eps       ncg     rms          rms(c)
DAV:   1    -0.627599794451E+03   -0.15128E-02   -0.15818E-01 10752   0.788E-01    0.223E-01
DAV:   2    -0.627599697902E+03    0.96549E-04   -0.58166E-03 14796   0.182E-01    0.154E-01
DAV:   3    -0.627599637871E+03    0.60031E-04   -0.63977E-04 11700   0.768E-02
  45 F= -.62759964E+03 E0= -.62759964E+03  d E =-.135212E-02  mag=    20.0000
       N       E                     dE             d eps       ncg     rms          rms(c)
DAV:   1    -0.627591517282E+03    0.81806E-02   -0.62019E+00 10752   0.485E+00    0.579E-01
DAV:   2    -0.627608158820E+03   -0.16642E-01   -0.15963E-01 12300   0.827E-01    0.322E-01
DAV:   3    -0.627608470287E+03   -0.31147E-03   -0.56267E-03 15096   0.149E-01    0.178E-01
DAV:   4    -0.627608138957E+03    0.33133E-03   -0.68110E-04 12600   0.635E-02    0.115E-01
DAV:   5    -0.627607949416E+03    0.18954E-03   -0.67244E-04 11580   0.617E-02    0.540E-02
DAV:   6    -0.627607951124E+03   -0.17087E-05   -0.14752E-04  7344   0.326E-02
  46 F= -.62760795E+03 E0= -.62760795E+03  d E =-.831325E-02  mag=    20.0000
       N       E                     dE             d eps       ncg     rms          rms(c)
DAV:   1    -0.627608986024E+03   -0.10366E-02   -0.19340E-01 10752   0.861E-01    0.164E-01
DAV:   2    -0.627609422268E+03   -0.43624E-03   -0.58734E-03 13824   0.169E-01    0.114E-01
DAV:   3    -0.627609409548E+03    0.12720E-04   -0.29716E-04  9204   0.592E-02
  47 F= -.62760941E+03 E0= -.62760941E+03  d E =-.145842E-02  mag=    20.0000
       N       E                     dE             d eps       ncg     rms          rms(c)
DAV:   1    -0.627610292469E+03   -0.87020E-03   -0.43084E-01 10752   0.129E+00    0.213E-01
DAV:   2    -0.627611255942E+03   -0.96347E-03   -0.13574E-02 13260   0.258E-01    0.183E-01
DAV:   3    -0.627611205103E+03    0.50839E-04   -0.71519E-04 13068   0.684E-02
  48 F= -.62761121E+03 E0= -.62761121E+03  d E =-.179556E-02  mag=    20.0000
       N       E                     dE             d eps       ncg     rms          rms(c)
DAV:   1    -0.627612075054E+03   -0.81911E-03   -0.12259E-01 10752   0.682E-01    0.111E-01
DAV:   2    -0.627612441752E+03   -0.36670E-03   -0.42886E-03 14232   0.144E-01    0.114E-01
DAV:   3    -0.627612389083E+03    0.52669E-04   -0.23076E-04  8844   0.410E-02
  49 F= -.62761239E+03 E0= -.62761239E+03  d E =-.118398E-02  mag=    20.0000
       N       E                     dE             d eps       ncg     rms          rms(c)
DAV:   1    -0.627612590388E+03   -0.14864E-03   -0.53252E-03 10860   0.144E-01    0.473E-02
DAV:   2    -0.627612591262E+03   -0.87449E-06   -0.16638E-04  6720   0.330E-02
  50 F= -.62761259E+03 E0= -.62761259E+03  d E =-.202180E-03  mag=    20.0000
       N       E                     dE             d eps       ncg     rms          rms(c)
DAV:   1    -0.627613458282E+03   -0.86789E-03   -0.52854E-01 10752   0.143E+00    0.176E-01
DAV:   2    -0.627614712117E+03   -0.12538E-02   -0.14287E-02 12780   0.254E-01    0.119E-01
DAV:   3    -0.627614710950E+03    0.11667E-05   -0.65297E-04 12744   0.620E-02
  51 F= -.62761471E+03 E0= -.62761471E+03  d E =-.211969E-02  mag=    20.0000
       N       E                     dE             d eps       ncg     rms          rms(c)
DAV:   1    -0.627615797643E+03   -0.10855E-02   -0.36773E-02 11388   0.409E-01    0.235E-01
DAV:   2    -0.627615204328E+03    0.59332E-03   -0.48381E-03 15900   0.185E-01    0.194E-01
DAV:   3    -0.627615082251E+03    0.12208E-03   -0.81131E-04 13416   0.805E-02    0.608E-02
DAV:   4    -0.627615059032E+03    0.23220E-04   -0.85060E-05  7224   0.287E-02
  52 F= -.62761506E+03 E0= -.62761506E+03  d E =-.348082E-03  mag=    20.0000
       N       E                     dE             d eps       ncg     rms          rms(c)
DAV:   1    -0.627615994636E+03   -0.91238E-03   -0.18715E-01 10752   0.846E-01    0.126E-01
DAV:   2    -0.627616423947E+03   -0.42931E-03   -0.57534E-03 14052   0.171E-01    0.113E-01
DAV:   3    -0.627616391290E+03    0.32657E-04   -0.36825E-04 10068   0.537E-02
  53 F= -.62761639E+03 E0= -.62761639E+03  d E =-.133226E-02  mag=    20.0000
       N       E                     dE             d eps       ncg     rms          rms(c)
DAV:   1    -0.627617238447E+03   -0.81450E-03   -0.34762E-01 10752   0.115E+00    0.142E-01
DAV:   2    -0.627618148520E+03   -0.91007E-03   -0.91783E-03 12468   0.202E-01    0.898E-02
DAV:   3    -0.627618144505E+03    0.40145E-05   -0.28727E-04  9396   0.384E-02
  54 F= -.62761814E+03 E0= -.62761814E+03  d E =-.175322E-02  mag=    20.0000
       N       E                     dE             d eps       ncg     rms          rms(c)
DAV:   1    -0.627619009163E+03   -0.86064E-03   -0.26035E-01 10752   0.991E-01    0.125E-01
DAV:   2    -0.627619672750E+03   -0.66359E-03   -0.64992E-03 12912   0.167E-01    0.851E-02
DAV:   3    -0.627619667913E+03    0.48373E-05   -0.23271E-04  8424   0.374E-02
  55 F= -.62761967E+03 E0= -.62761967E+03  d E =-.152341E-02  mag=    20.0000
       N       E                     dE             d eps       ncg     rms          rms(c)
DAV:   1    -0.627620221660E+03   -0.54891E-03   -0.57166E-02 10848   0.464E-01    0.703E-02
DAV:   2    -0.627620344479E+03   -0.12282E-03   -0.13767E-03 12876   0.789E-02    0.510E-02
DAV:   3    -0.627620338187E+03    0.62920E-05   -0.52648E-05  6252   0.180E-02
  56 F= -.62762034E+03 E0= -.62762034E+03  d E =-.670274E-03  mag=    20.0000
       N       E                     dE             d eps       ncg     rms          rms(c)
DAV:   1    -0.627620927766E+03   -0.58329E-03   -0.73265E-02 10752   0.535E-01    0.109E-01
DAV:   2    -0.627621011305E+03   -0.83539E-04   -0.24102E-03 13920   0.112E-01    0.826E-02
DAV:   3    -0.627620994937E+03    0.16367E-04   -0.12941E-04  7068   0.397E-02
  57 F= -.62762099E+03 E0= -.62762099E+03  d E =-.656750E-03  mag=    20.0000
       N       E                     dE             d eps       ncg     rms          rms(c)
DAV:   1    -0.627618293420E+03    0.27179E-02   -0.27804E+00 10752   0.325E+00    0.378E-01
DAV:   2    -0.627625637751E+03   -0.73443E-02   -0.71858E-02 12000   0.548E-01    0.218E-01
DAV:   3    -0.627625766105E+03   -0.12835E-03   -0.26373E-03 15432   0.109E-01    0.136E-01
DAV:   4    -0.627625641690E+03    0.12441E-03   -0.19740E-04  7752   0.392E-02    0.870E-02
DAV:   5    -0.627625556114E+03    0.85576E-04   -0.55426E-04 10656   0.529E-02
  58 F= -.62762556E+03 E0= -.62762556E+03  d E =-.456118E-02  mag=    20.0000
       N       E                     dE             d eps       ncg     rms          rms(c)
DAV:   1    -0.627625328879E+03    0.31281E-03   -0.15166E-01 10956   0.793E-01    0.239E-01
DAV:   2    -0.627624983439E+03    0.34544E-03   -0.69404E-03 14664   0.200E-01    0.165E-01
DAV:   3    -0.627624890861E+03    0.92578E-04   -0.79924E-04 12912   0.899E-02
  59 F= -.62762489E+03 E0= -.62762489E+03  d E =0.665254E-03  mag=    20.0000
       N       E                     dE             d eps       ncg     rms          rms(c)
DAV:   1    -0.627624879995E+03    0.10344E-03   -0.37630E-04  9996   0.456E-02    0.463E-02
DAV:   2    -0.627624873669E+03    0.63263E-05   -0.70977E-05  6828   0.244E-02
  60 F= -.62762487E+03 E0= -.62762487E+03  d E =0.171915E-04  mag=    20.0000
       N       E                     dE             d eps       ncg     rms          rms(c)
DAV:   1    -0.627626262654E+03   -0.13827E-02   -0.50175E-01 10752   0.140E+00    0.276E-01
DAV:   2    -0.627626888460E+03   -0.62581E-03   -0.16457E-02 14328   0.287E-01    0.200E-01
DAV:   3    -0.627626809655E+03    0.78805E-04   -0.13333E-03 14436   0.103E-01    0.786E-02
DAV:   4    -0.627626759913E+03    0.49742E-04   -0.13293E-04  7152   0.365E-02
  61 F= -.62762676E+03 E0= -.62762676E+03  d E =-.188624E-02  mag=    20.0000
       N       E                     dE             d eps       ncg     rms          rms(c)
DAV:   1    -0.627625623894E+03    0.11858E-02   -0.11593E-01 10752   0.643E-01    0.237E-01
DAV:   2    -0.627625993293E+03   -0.36940E-03   -0.74027E-03 14592   0.217E-01    0.258E-01
DAV:   3    -0.627625867518E+03    0.12578E-03   -0.10042E-03 13320   0.860E-02    0.154E-01
DAV:   4    -0.627625831872E+03    0.35645E-04   -0.38358E-04 10500   0.389E-02
  62 F= -.62762583E+03 E0= -.62762583E+03  d E =0.928040E-03  mag=    20.0000
       N       E                     dE             d eps       ncg     rms          rms(c)
DAV:   1    -0.627626672221E+03   -0.80470E-03   -0.69740E-01 10752   0.164E+00    0.339E-01
DAV:   2    -0.627628192822E+03   -0.15206E-02   -0.22920E-02 13428   0.356E-01    0.297E-01
DAV:   3    -0.627628171431E+03    0.21391E-04   -0.18033E-03 14892   0.117E-01    0.187E-01
DAV:   4    -0.627628058301E+03    0.11313E-03   -0.55999E-04 11724   0.485E-02    0.119E-01
DAV:   5    -0.627627994475E+03    0.63826E-04   -0.13101E-04  7596   0.427E-02
  63 F= -.62762799E+03 E0= -.62762799E+03  d E =-.216260E-02  mag=    20.0000
       N       E                     dE             d eps       ncg     rms          rms(c)
DAV:   1    -0.627629134176E+03   -0.10759E-02   -0.14839E-01 10752   0.759E-01    0.165E-01
DAV:   2    -0.627629307314E+03   -0.17314E-03   -0.52687E-03 13884   0.163E-01    0.122E-01
DAV:   3    -0.627629269522E+03    0.37792E-04   -0.38184E-04 10344   0.607E-02
  64 F= -.62762927E+03 E0= -.62762927E+03  d E =-.127505E-02  mag=    20.0000
       N       E                     dE             d eps       ncg     rms          rms(c)
DAV:   1    -0.627629933420E+03   -0.62611E-03   -0.48955E-01 10752   0.137E+00    0.196E-01
DAV:   2    -0.627631027558E+03   -0.10941E-02   -0.13307E-02 12840   0.244E-01    0.121E-01
DAV:   3    -0.627631002013E+03    0.25545E-04   -0.53765E-04 12228   0.595E-02
  65 F= -.62763100E+03 E0= -.62763100E+03  d E =-.173249E-02  mag=    20.0000
       N       E                     dE             d eps       ncg     rms          rms(c)
DAV:   1    -0.627631004431E+03    0.23128E-04   -0.19179E-04  7644   0.341E-02    0.474E-02
DAV:   2    -0.627630998344E+03    0.60866E-05   -0.53673E-05  6192   0.215E-02
  66 F= -.62763100E+03 E0= -.62763100E+03  d E =0.366890E-05  mag=    20.0000
       N       E                     dE             d eps       ncg     rms          rms(c)
DAV:   1    -0.627631284482E+03   -0.28005E-03   -0.36411E-02 11016   0.401E-01    0.184E-01
DAV:   2    -0.627630924983E+03    0.35950E-03   -0.34934E-03 15744   0.148E-01    0.160E-01
DAV:   3    -0.627630817067E+03    0.10792E-03   -0.61754E-04 12384   0.673E-02    0.709E-02
DAV:   4    -0.627630793364E+03    0.23703E-04   -0.95964E-05  6840   0.302E-02
  67 F= -.62763079E+03 E0= -.62763079E+03  d E =0.204980E-03  mag=    20.0000
       N       E                     dE             d eps       ncg     rms          rms(c)
DAV:   1    -0.627631463050E+03   -0.64598E-03   -0.41553E-01 10752   0.126E+00    0.193E-01
DAV:   2    -0.627632553439E+03   -0.10904E-02   -0.12168E-02 13704   0.253E-01    0.180E-01
DAV:   3    -0.627632530346E+03    0.23093E-04   -0.85807E-04 13392   0.799E-02
  68 F= -.62763253E+03 E0= -.62763253E+03  d E =-.173698E-02  mag=    20.0000
       N       E                     dE             d eps       ncg     rms          rms(c)
DAV:   1    -0.627633102474E+03   -0.54904E-03   -0.90236E-02 10752   0.588E-01    0.106E-01
DAV:   2    -0.627633286498E+03   -0.18402E-03   -0.24728E-03 12948   0.108E-01    0.699E-02
DAV:   3    -0.627633266456E+03    0.20042E-04   -0.86040E-05  6624   0.273E-02
  69 F= -.62763327E+03 E0= -.62763327E+03  d E =-.736110E-03  mag=    20.0000
       N       E                     dE             d eps       ncg     rms          rms(c)
DAV:   1    -0.627633488953E+03   -0.20246E-03   -0.77249E-01 10752   0.172E+00    0.185E-01
DAV:   2    -0.627635430031E+03   -0.19411E-02   -0.20714E-02 12564   0.302E-01    0.124E-01
DAV:   3    -0.627635426517E+03    0.35137E-05   -0.86919E-04 13584   0.636E-02
  70 F= -.62763543E+03 E0= -.62763543E+03  d E =-.216006E-02  mag=    20.0000
       N       E                     dE             d eps       ncg     rms          rms(c)
DAV:   1    -0.627636085069E+03   -0.65504E-03   -0.23517E-01 10752   0.941E-01    0.135E-01
DAV:   2    -0.627636638744E+03   -0.55367E-03   -0.58691E-03 12912   0.165E-01    0.102E-01
DAV:   3    -0.627636628542E+03    0.10202E-04   -0.22908E-04  8556   0.426E-02
  71 F= -.62763663E+03 E0= -.62763663E+03  d E =-.120202E-02  mag=    20.0000
       N       E                     dE             d eps       ncg     rms          rms(c)
DAV:   1    -0.627626549354E+03    0.10089E-01   -0.23219E+00 10752   0.297E+00    0.324E-01
DAV:   2    -0.627632747614E+03   -0.61983E-02   -0.61365E-02 12204   0.508E-01    0.166E-01
DAV:   3    -0.627632896128E+03   -0.14851E-03   -0.22350E-03 15312   0.908E-02    0.879E-02
DAV:   4    -0.627632797337E+03    0.98790E-04   -0.18158E-04  7632   0.361E-02
  72 F= -.62763280E+03 E0= -.62763280E+03  d E =0.383120E-02  mag=    20.0000
       N       E                     dE             d eps       ncg     rms          rms(c)
DAV:   1    -0.627628244035E+03    0.46521E-02   -0.93805E-01 10752   0.188E+00    0.309E-01
DAV:   2    -0.627630237234E+03   -0.19932E-02   -0.26071E-02 13692   0.357E-01    0.251E-01
DAV:   3    -0.627630160568E+03    0.76667E-04   -0.17850E-03 14772   0.109E-01    0.131E-01
DAV:   4    -0.627630056407E+03    0.10416E-03   -0.20416E-04  8184   0.402E-02    0.988E-02
DAV:   5    -0.627630016097E+03    0.40310E-04   -0.20705E-04  7104   0.408E-02
  73 F= -.62763002E+03 E0= -.62763002E+03  d E =0.278124E-02  mag=    20.0000
       N       E                     dE             d eps       ncg     rms          rms(c)
DAV:   1    -0.627629784160E+03    0.27225E-03   -0.13636E+00 10752   0.227E+00    0.287E-01
DAV:   2    -0.627633411739E+03   -0.36276E-02   -0.35686E-02 12840   0.396E-01    0.207E-01
DAV:   3    -0.627633437148E+03   -0.25409E-04   -0.16271E-03 14844   0.966E-02    0.113E-01
DAV:   4    -0.627633349875E+03    0.87273E-04   -0.15489E-04  7920   0.343E-02
  74 F= -.62763335E+03 E0= -.62763335E+03  d E =-.333378E-02  mag=    20.0000
       N       E                     dE             d eps       ncg     rms          rms(c)
DAV:   1    -0.627633793911E+03   -0.35676E-03   -0.51738E-02 10776   0.441E-01    0.823E-02
DAV:   2    -0.627633866139E+03   -0.72228E-04   -0.12490E-03 13308   0.790E-02    0.607E-02
DAV:   3    -0.627633863622E+03    0.25171E-05   -0.92361E-05  6816   0.267E-02
  75 F= -.62763386E+03 E0= -.62763386E+03  d E =-.513747E-03  mag=    20.0000
       N       E                     dE             d eps       ncg     rms          rms(c)
DAV:   1    -0.627634428369E+03   -0.56223E-03   -0.10860E-01 10752   0.645E-01    0.911E-02
DAV:   2    -0.627634721176E+03   -0.29281E-03   -0.30239E-03 12984   0.118E-01    0.643E-02
DAV:   3    -0.627634714130E+03    0.70452E-05   -0.99944E-05  6816   0.304E-02
  76 F= -.62763471E+03 E0= -.62763471E+03  d E =-.850508E-03  mag=    20.0000
       N       E                     dE             d eps       ncg     rms          rms(c)
DAV:   1    -0.627635140758E+03   -0.41958E-03   -0.55400E-01 10752   0.145E+00    0.175E-01
DAV:   2    -0.627636557192E+03   -0.14164E-02   -0.14466E-02 12792   0.252E-01    0.101E-01
DAV:   3    -0.627636580042E+03   -0.22850E-04   -0.69649E-04 12552   0.511E-02
  77 F= -.62763658E+03 E0= -.62763658E+03  d E =-.186591E-02  mag=    20.0000
       N       E                     dE             d eps       ncg     rms          rms(c)
DAV:   1    -0.627636332798E+03    0.22439E-03   -0.13351E-02 10824   0.228E-01    0.581E-02
DAV:   2    -0.627636378813E+03   -0.46015E-04   -0.83179E-04 12324   0.708E-02
  78 F= -.62763638E+03 E0= -.62763638E+03  d E =0.201228E-03  mag=    20.0000
       N       E                     dE             d eps       ncg     rms          rms(c)
DAV:   1    -0.627636990718E+03   -0.65792E-03   -0.33045E-01 10752   0.112E+00    0.158E-01
DAV:   2    -0.627637799727E+03   -0.80901E-03   -0.89947E-03 12984   0.199E-01    0.981E-02
DAV:   3    -0.627637786302E+03    0.13426E-04   -0.39501E-04 10716   0.576E-02
  79 F= -.62763779E+03 E0= -.62763779E+03  d E =-.140749E-02  mag=    20.0000
       N       E                     dE             d eps       ncg     rms          rms(c)
DAV:   1    -0.627638328990E+03   -0.52926E-03   -0.10430E-01 10752   0.628E-01    0.835E-02
DAV:   2    -0.627638566998E+03   -0.23801E-03   -0.26485E-03 12672   0.109E-01    0.528E-02
DAV:   3    -0.627638556904E+03    0.10094E-04   -0.91419E-05  6516   0.237E-02
  80 F= -.62763856E+03 E0= -.62763856E+03  d E =-.770603E-03  mag=    20.0000
       N       E                     dE             d eps       ncg     rms          rms(c)
DAV:   1    -0.627638798632E+03   -0.23163E-03   -0.11145E-02 10896   0.209E-01    0.559E-02
DAV:   2    -0.627638787244E+03    0.11388E-04   -0.37015E-04  9732   0.504E-02
  81 F= -.62763879E+03 E0= -.62763879E+03  d E =-.230340E-03  mag=    20.0000
       N       E                     dE             d eps       ncg     rms          rms(c)
DAV:   1    -0.627638843768E+03   -0.45136E-04   -0.48920E-01 10752   0.136E+00    0.237E-01
DAV:   2    -0.627640366760E+03   -0.15230E-02   -0.12989E-02 12456   0.238E-01    0.138E-01
DAV:   3    -0.627640432777E+03   -0.66016E-04   -0.49131E-04 11400   0.524E-02
  82 F= -.62764043E+03 E0= -.62764043E+03  d E =-.164553E-02  mag=    20.0000
       N       E                     dE             d eps       ncg     rms          rms(c)
DAV:   1    -0.627640976679E+03   -0.60992E-03   -0.13161E-01 10752   0.710E-01    0.100E-01
DAV:   2    -0.627641250380E+03   -0.27370E-03   -0.37879E-03 14100   0.139E-01    0.835E-02
DAV:   3    -0.627641226069E+03    0.24311E-04   -0.21918E-04  8436   0.407E-02
  83 F= -.62764123E+03 E0= -.62764123E+03  d E =-.793292E-03  mag=    20.0000
       N       E                     dE             d eps       ncg     rms          rms(c)
DAV:   1    -0.627641726081E+03   -0.47570E-03   -0.10236E-01 10752   0.622E-01    0.926E-02
DAV:   2    -0.627641972870E+03   -0.24679E-03   -0.26567E-03 12732   0.109E-01    0.663E-02
DAV:   3    -0.627641967592E+03    0.52783E-05   -0.83935E-05  6684   0.274E-02
  84 F= -.62764197E+03 E0= -.62764197E+03  d E =-.741523E-03  mag=    20.0000
       N       E                     dE             d eps       ncg     rms          rms(c)
DAV:   1    -0.627642479792E+03   -0.50692E-03   -0.23210E-01 10752   0.938E-01    0.119E-01
DAV:   2    -0.627643059728E+03   -0.57994E-03   -0.59223E-03 13212   0.162E-01    0.854E-02
DAV:   3    -0.627643057443E+03    0.22849E-05   -0.20332E-04  8016   0.408E-02
  85 F= -.62764306E+03 E0= -.62764306E+03  d E =-.108985E-02  mag=    20.0000
       N       E                     dE             d eps       ncg     rms          rms(c)
DAV:   1    -0.627643496518E+03   -0.43679E-03   -0.67136E-02 10752   0.504E-01    0.648E-02
DAV:   2    -0.627643647728E+03   -0.15121E-03   -0.16824E-03 12768   0.848E-02    0.422E-02
DAV:   3    -0.627643639776E+03    0.79512E-05   -0.58878E-05  5988   0.185E-02
  86 F= -.62764364E+03 E0= -.62764364E+03  d E =-.582334E-03  mag=    20.0000
       N       E                     dE             d eps       ncg     rms          rms(c)
DAV:   1    -0.627643330036E+03    0.31769E-03   -0.98572E-01 10752   0.193E+00    0.218E-01
DAV:   2    -0.627645832372E+03   -0.25023E-02   -0.25397E-02 12504   0.326E-01    0.127E-01
DAV:   3    -0.627645872580E+03   -0.40208E-04   -0.10377E-03 14364   0.693E-02    0.812E-02
DAV:   4    -0.627645825331E+03    0.47248E-04   -0.78692E-05  6432   0.279E-02
  87 F= -.62764583E+03 E0= -.62764583E+03  d E =-.218555E-02  mag=    20.0000
       N       E                     dE             d eps       ncg     rms          rms(c)
DAV:   1    -0.627646324739E+03   -0.45216E-03   -0.14349E-01 10752   0.734E-01    0.875E-02
DAV:   2    -0.627646648432E+03   -0.32369E-03   -0.33788E-03 12876   0.120E-01    0.527E-02
DAV:   3    -0.627646647593E+03    0.83863E-06   -0.12160E-04  6972   0.273E-02
  88 F= -.62764665E+03 E0= -.62764665E+03  d E =-.822262E-03  mag=    20.0000
       N       E                     dE             d eps       ncg     rms          rms(c)
DAV:   1    -0.627647157399E+03   -0.50897E-03   -0.14878E-01 10752   0.754E-01    0.115E-01
DAV:   2    -0.627647460450E+03   -0.30305E-03   -0.41037E-03 13260   0.136E-01    0.801E-02
DAV:   3    -0.627647445890E+03    0.14560E-04   -0.15092E-04  7848   0.333E-02
  89 F= -.62764745E+03 E0= -.62764745E+03  d E =-.798297E-03  mag=    20.0000
       N       E                     dE             d eps       ncg     rms          rms(c)
DAV:   1    -0.627647651119E+03   -0.19067E-03   -0.11428E-02 10920   0.209E-01    0.436E-02
DAV:   2    -0.627647671008E+03   -0.19889E-04   -0.33580E-04  8088   0.419E-02
  90 F= -.62764767E+03 E0= -.62764767E+03  d E =-.225118E-03  mag=    20.0000
       N       E                     dE             d eps       ncg     rms          rms(c)
DAV:   1    -0.627648178172E+03   -0.52705E-03   -0.12303E-01 10752   0.687E-01    0.123E-01
DAV:   2    -0.627648417987E+03   -0.23982E-03   -0.37331E-03 14004   0.132E-01    0.879E-02
DAV:   3    -0.627648397949E+03    0.20037E-04   -0.20641E-04  8676   0.433E-02
  91 F= -.62764840E+03 E0= -.62764840E+03  d E =-.726942E-03  mag=    20.0000
       N       E                     dE             d eps       ncg     rms          rms(c)
DAV:   1    -0.627648687382E+03   -0.26940E-03   -0.32556E-02 10896   0.352E-01    0.515E-02
DAV:   2    -0.627648763508E+03   -0.76126E-04   -0.80878E-04 11004   0.601E-02
  92 F= -.62764876E+03 E0= -.62764876E+03  d E =-.365559E-03  mag=    20.0000
       N       E                     dE             d eps       ncg     rms          rms(c)
DAV:   1    -0.627648956945E+03   -0.26956E-03   -0.10639E-01 10752   0.628E-01    0.161E-01
DAV:   2    -0.627649329118E+03   -0.37217E-03   -0.30885E-03 13248   0.126E-01    0.104E-01
DAV:   3    -0.627649357864E+03   -0.28746E-04   -0.16446E-04  7824   0.353E-02
  93 F= -.62764936E+03 E0= -.62764936E+03  d E =-.594356E-03  mag=    20.0000
       N       E                     dE             d eps       ncg     rms          rms(c)
DAV:   1    -0.627649677828E+03   -0.34871E-03   -0.46793E-02 10824   0.428E-01    0.106E-01
DAV:   2    -0.627649712249E+03   -0.34420E-04   -0.15860E-03 14304   0.940E-02    0.851E-02
DAV:   3    -0.627649698110E+03    0.14138E-04   -0.10843E-04  7380   0.352E-02
  94 F= -.62764970E+03 E0= -.62764970E+03  d E =-.340246E-03  mag=    20.0000
       N       E                     dE             d eps       ncg     rms          rms(c)
DAV:   1    -0.627650032250E+03   -0.32000E-03   -0.27757E-02 10908   0.336E-01    0.153E-01
DAV:   2    -0.627649847802E+03    0.18445E-03   -0.17942E-03 14940   0.103E-01    0.101E-01
DAV:   3    -0.627649823074E+03    0.24728E-04   -0.19854E-04  8676   0.502E-02
  95 F= -.62764982E+03 E0= -.62764982E+03  d E =-.124963E-03  mag=    20.0000
       N       E                     dE             d eps       ncg     rms          rms(c)
DAV:   1    -0.627650134086E+03   -0.28628E-03   -0.25604E-01 10752   0.991E-01    0.122E-01
DAV:   2    -0.627650761902E+03   -0.62782E-03   -0.69682E-03 13836   0.180E-01    0.106E-01
DAV:   3    -0.627650755779E+03    0.61233E-05   -0.20835E-04  8112   0.435E-02
  96 F= -.62765076E+03 E0= -.62765076E+03  d E =-.932706E-03  mag=    20.0000
       N       E                     dE             d eps       ncg     rms          rms(c)
DAV:   1    -0.627650947551E+03   -0.18565E-03   -0.78292E-03 10920   0.173E-01    0.551E-02
DAV:   2    -0.627650943294E+03    0.42570E-05   -0.19113E-04  6900   0.352E-02
  97 F= -.62765094E+03 E0= -.62765094E+03  d E =-.187514E-03  mag=    20.0000
       N       E                     dE             d eps       ncg     rms          rms(c)
DAV:   1    -0.627651289086E+03   -0.34154E-03   -0.87170E-02 10776   0.579E-01    0.781E-02
DAV:   2    -0.627651494148E+03   -0.20506E-03   -0.27497E-03 14172   0.121E-01    0.905E-02
DAV:   3    -0.627651480619E+03    0.13530E-04   -0.10109E-04  6912   0.301E-02
  98 F= -.62765148E+03 E0= -.62765148E+03  d E =-.537325E-03  mag=    20.0000
       N       E                     dE             d eps       ncg     rms          rms(c)
DAV:   1    -0.627652174468E+03   -0.68032E-03   -0.26851E-02 11400   0.358E-01    0.191E-01
DAV:   2    -0.627651733113E+03    0.44136E-03   -0.33042E-03 15900   0.147E-01    0.158E-01
DAV:   3    -0.627651628614E+03    0.10450E-03   -0.53999E-04 11904   0.669E-02    0.541E-02
DAV:   4    -0.627651609361E+03    0.19253E-04   -0.89431E-05  7020   0.276E-02
  99 F= -.62765161E+03 E0= -.62765161E+03  d E =-.128742E-03  mag=    20.0000
       N       E                     dE             d eps       ncg     rms          rms(c)
DAV:   1    -0.627652271163E+03   -0.64255E-03   -0.62115E-02 10860   0.500E-01    0.130E-01
DAV:   2    -0.627652211012E+03    0.60151E-04   -0.27300E-03 15480   0.122E-01    0.917E-02
DAV:   3    -0.627652175013E+03    0.35999E-04   -0.26825E-04  9516   0.512E-02
 100 F= -.62765218E+03 E0= -.62765218E+03  d E =-.565652E-03  mag=    20.0000
       N       E                     dE             d eps       ncg     rms          rms(c)
DAV:   1    -0.627652643508E+03   -0.43250E-03   -0.31381E-01 10752   0.110E+00    0.182E-01
DAV:   2    -0.627653233913E+03   -0.59041E-03   -0.94993E-03 13740   0.212E-01    0.136E-01
DAV:   3    -0.627653182930E+03    0.50983E-04   -0.55871E-04 12228   0.691E-02
 101 F= -.62765318E+03 E0= -.62765318E+03  d E =-.100792E-02  mag=    20.0000
       N       E                     dE             d eps       ncg     rms          rms(c)
DAV:   1    -0.627653410415E+03   -0.17650E-03   -0.13090E-02 10920   0.228E-01    0.643E-02
DAV:   2    -0.627653412935E+03   -0.25200E-05   -0.63408E-04 11352   0.603E-02
 102 F= -.62765341E+03 E0= -.62765341E+03  d E =-.230005E-03  mag=    20.0000
       N       E                     dE             d eps       ncg     rms          rms(c)
DAV:   1    -0.627653633363E+03   -0.22295E-03   -0.13088E-02 11064   0.228E-01    0.681E-02
DAV:   2    -0.627653609654E+03    0.23709E-04   -0.58693E-04 11496   0.582E-02
 103 F= -.62765361E+03 E0= -.62765361E+03  d E =-.196719E-03  mag=    20.0000
       N       E                     dE             d eps       ncg     rms          rms(c)
DAV:   1    -0.627654212988E+03   -0.57962E-03   -0.12498E-01 10752   0.701E-01    0.159E-01
DAV:   2    -0.627654272554E+03   -0.59566E-04   -0.44853E-03 14208   0.150E-01    0.113E-01
DAV:   3    -0.627654230119E+03    0.42435E-04   -0.40684E-04 10956   0.589E-02
 104 F= -.62765423E+03 E0= -.62765423E+03  d E =-.620465E-03  mag=    20.0000
       N       E                     dE             d eps       ncg     rms          rms(c)
DAV:   1    -0.627654780511E+03   -0.50796E-03   -0.87484E-02 10812   0.584E-01    0.110E-01
DAV:   2    -0.627654871922E+03   -0.91411E-04   -0.29439E-03 14928   0.124E-01    0.863E-02
DAV:   3    -0.627654844736E+03    0.27186E-04   -0.21705E-04  8736   0.449E-02
 105 F= -.62765484E+03 E0= -.62765484E+03  d E =-.614617E-03  mag=    20.0000
       N       E                     dE             d eps       ncg     rms          rms(c)
DAV:   1    -0.627655264901E+03   -0.39298E-03   -0.11091E-01 10776   0.653E-01    0.109E-01
DAV:   2    -0.627655461789E+03   -0.19689E-03   -0.32111E-03 13260   0.122E-01    0.733E-02
DAV:   3    -0.627655444379E+03    0.17410E-04   -0.13306E-04  7944   0.363E-02
 106 F= -.62765544E+03 E0= -.62765544E+03  d E =-.599643E-03  mag=    20.0000
       N       E                     dE             d eps       ncg     rms          rms(c)
DAV:   1    -0.627655723029E+03   -0.26124E-03   -0.15351E-02 11088   0.249E-01    0.760E-02
DAV:   2    -0.627655674888E+03    0.48140E-04   -0.63858E-04 10956   0.572E-02
 107 F= -.62765567E+03 E0= -.62765567E+03  d E =-.230510E-03  mag=    20.0000
       N       E                     dE             d eps       ncg     rms          rms(c)
DAV:   1    -0.627656079467E+03   -0.35644E-03   -0.15445E-01 10776   0.767E-01    0.138E-01
DAV:   2    -0.627656389909E+03   -0.31044E-03   -0.46223E-03 13692   0.149E-01    0.997E-02
DAV:   3    -0.627656372233E+03    0.17677E-04   -0.26340E-04  9432   0.497E-02
 108 F= -.62765637E+03 E0= -.62765637E+03  d E =-.697344E-03  mag=    20.0000
       N       E                     dE             d eps       ncg     rms          rms(c)
DAV:   1    -0.627656693971E+03   -0.30406E-03   -0.36036E-02 10872   0.374E-01    0.656E-02
DAV:   2    -0.627656752193E+03   -0.58222E-04   -0.10892E-03 13236   0.757E-02    0.579E-02
DAV:   3    -0.627656744882E+03    0.73104E-05   -0.74148E-05  6348   0.264E-02
 109 F= -.62765674E+03 E0= -.62765674E+03  d E =-.372650E-03  mag=    20.0000
       N       E                     dE             d eps       ncg     rms          rms(c)
DAV:   1    -0.627657326865E+03   -0.57467E-03   -0.13456E-01 10776   0.725E-01    0.149E-01
DAV:   2    -0.627657440552E+03   -0.11369E-03   -0.47107E-03 14592   0.156E-01    0.119E-01
DAV:   3    -0.627657392993E+03    0.47559E-04   -0.39154E-04 10512   0.577E-02
 110 F= -.62765739E+03 E0= -.62765739E+03  d E =-.648111E-03  mag=    20.0000
       N       E                     dE             d eps       ncg     rms          rms(c)
DAV:   1    -0.627657716937E+03   -0.27638E-03   -0.44095E-02 10800   0.411E-01    0.690E-02
DAV:   2    -0.627657796824E+03   -0.79887E-04   -0.12500E-03 13704   0.822E-02    0.582E-02
DAV:   3    -0.627657790242E+03    0.65818E-05   -0.76324E-05  6276   0.279E-02
 111 F= -.62765779E+03 E0= -.62765779E+03  d E =-.397248E-03  mag=    20.0000
       N       E                     dE             d eps       ncg     rms          rms(c)
DAV:   1    -0.627657791651E+03    0.51722E-05   -0.48388E-01 10752   0.135E+00    0.161E-01
DAV:   2    -0.627659065930E+03   -0.12743E-02   -0.12286E-02 12396   0.226E-01    0.916E-02
DAV:   3    -0.627659091396E+03   -0.25466E-04   -0.46796E-04 11088   0.470E-02
 112 F= -.62765909E+03 E0= -.62765909E+03  d E =-.130115E-02  mag=    20.0000
       N       E                     dE             d eps       ncg     rms          rms(c)
DAV:   1    -0.627657677374E+03    0.13886E-02   -0.21645E-01 10776   0.911E-01    0.126E-01
DAV:   2    -0.627658198381E+03   -0.52101E-03   -0.63053E-03 12864   0.165E-01    0.657E-02
DAV:   3    -0.627658206190E+03   -0.78088E-05   -0.19559E-04  8148   0.426E-02
 113 F= -.62765821E+03 E0= -.62765821E+03  d E =0.885206E-03  mag=    20.0000
       N       E                     dE             d eps       ncg     rms          rms(c)
DAV:   1    -0.627658436282E+03   -0.23790E-03   -0.24009E-01 10776   0.958E-01    0.125E-01
DAV:   2    -0.627659067258E+03   -0.63098E-03   -0.67707E-03 12504   0.173E-01    0.733E-02
DAV:   3    -0.627659071262E+03   -0.40045E-05   -0.19294E-04  7752   0.370E-02
 114 F= -.62765907E+03 E0= -.62765907E+03  d E =-.865073E-03  mag=    20.0000
       N       E                     dE             d eps       ncg     rms          rms(c)
DAV:   1    -0.627659195450E+03   -0.12819E-03   -0.52180E-03 10896   0.143E-01    0.429E-02
DAV:   2    -0.627659197137E+03   -0.16868E-05   -0.26186E-04  7092   0.409E-02
 115 F= -.62765920E+03 E0= -.62765920E+03  d E =-.125875E-03  mag=    20.0000
       N       E                     dE             d eps       ncg     rms          rms(c)
DAV:   1    -0.627659058272E+03    0.13718E-03   -0.50888E-01 10752   0.139E+00    0.183E-01
DAV:   2    -0.627660422936E+03   -0.13647E-02   -0.13302E-02 12696   0.240E-01    0.114E-01
DAV:   3    -0.627660456068E+03   -0.33132E-04   -0.60642E-04 12372   0.590E-02
 116 F= -.62766046E+03 E0= -.62766046E+03  d E =-.125893E-02  mag=    20.0000
       N       E                     dE             d eps       ncg     rms          rms(c)
DAV:   1    -0.627660120797E+03    0.30214E-03   -0.32545E-02 10776   0.355E-01    0.806E-02
DAV:   2    -0.627660191015E+03   -0.70218E-04   -0.13741E-03 13344   0.823E-02    0.586E-02
DAV:   3    -0.627660189780E+03    0.12357E-05   -0.96344E-05  6420   0.289E-02
 117 F= -.62766019E+03 E0= -.62766019E+03  d E =0.266288E-03  mag=    20.0000
       N       E                     dE             d eps       ncg     rms          rms(c)
DAV:   1    -0.627660521554E+03   -0.33054E-03   -0.17327E-01 10776   0.820E-01    0.130E-01
DAV:   2    -0.627660909142E+03   -0.38759E-03   -0.57529E-03 13884   0.169E-01    0.119E-01
DAV:   3    -0.627660864549E+03    0.44594E-04   -0.34000E-04  9816   0.517E-02
 118 F= -.62766086E+03 E0= -.62766086E+03  d E =-.674769E-03  mag=    20.0000
       N       E                     dE             d eps       ncg     rms          rms(c)
DAV:   1    -0.627661179775E+03   -0.27063E-03   -0.47629E-02 10800   0.431E-01    0.907E-02
DAV:   2    -0.627661286391E+03   -0.10662E-03   -0.22335E-03 14976   0.119E-01    0.102E-01
DAV:   3    -0.627661242089E+03    0.44302E-04   -0.19626E-04  8112   0.414E-02
 119 F= -.62766124E+03 E0= -.62766124E+03  d E =-.377541E-03  mag=    20.0000
       N       E                     dE             d eps       ncg     rms          rms(c)
DAV:   1    -0.627661546788E+03   -0.26040E-03   -0.92844E-02 10776   0.592E-01    0.811E-02
DAV:   2    -0.627661769652E+03   -0.22286E-03   -0.23855E-03 13152   0.102E-01    0.501E-02
DAV:   3    -0.627661763744E+03    0.59078E-05   -0.76457E-05  6744   0.257E-02
 120 F= -.62766176E+03 E0= -.62766176E+03  d E =-.521655E-03  mag=    20.0000
       N       E                     dE             d eps       ncg     rms          rms(c)
DAV:   1    -0.627662014982E+03   -0.24533E-03   -0.36478E-02 10824   0.373E-01    0.502E-02
DAV:   2    -0.627662095426E+03   -0.80444E-04   -0.10038E-03 12108   0.677E-02    0.399E-02
DAV:   3    -0.627662091812E+03    0.36141E-05   -0.42766E-05  5952   0.192E-02
 121 F= -.62766209E+03 E0= -.62766209E+03  d E =-.328068E-03  mag=    20.0000
       N       E                     dE             d eps       ncg     rms          rms(c)
DAV:   1    -0.627662186881E+03   -0.91455E-04   -0.36923E-01 10752   0.118E+00    0.135E-01
DAV:   2    -0.627663119646E+03   -0.93276E-03   -0.94942E-03 12264   0.197E-01    0.805E-02
DAV:   3    -0.627663119593E+03    0.53129E-07   -0.29426E-04  9600   0.399E-02
 122 F= -.62766312E+03 E0= -.62766312E+03  d E =-.102778E-02  mag=    20.0000
       N       E                     dE             d eps       ncg     rms          rms(c)
DAV:   1    -0.627662344628E+03    0.77502E-03   -0.91067E-02 10776   0.588E-01    0.736E-02
DAV:   2    -0.627662585888E+03   -0.24126E-03   -0.26794E-03 13104   0.109E-01    0.484E-02
DAV:   3    -0.627662589827E+03   -0.39389E-05   -0.10051E-04  6528   0.279E-02
 123 F= -.62766259E+03 E0= -.62766259E+03  d E =0.529766E-03  mag=    20.0000
       N       E                     dE             d eps       ncg     rms          rms(c)
DAV:   1    -0.627662739770E+03   -0.15388E-03   -0.31578E-01 10776   0.109E+00    0.129E-01
DAV:   2    -0.627663542443E+03   -0.80267E-03   -0.83556E-03 12756   0.191E-01    0.785E-02
DAV:   3    -0.627663550918E+03   -0.84756E-05   -0.33095E-04  9468   0.417E-02
 124 F= -.62766355E+03 E0= -.62766355E+03  d E =-.961092E-03  mag=    20.0000
       N       E                     dE             d eps       ncg     rms          rms(c)
DAV:   1    -0.627663703066E+03   -0.16062E-03   -0.12263E-02 10908   0.216E-01    0.403E-02
DAV:   2    -0.627663723049E+03   -0.19983E-04   -0.38556E-04  9168   0.451E-02
 125 F= -.62766372E+03 E0= -.62766372E+03  d E =-.172131E-03  mag=    20.0000
       N       E                     dE             d eps       ncg     rms          rms(c)
DAV:   1    -0.627663982276E+03   -0.27921E-03   -0.12638E-01 10752   0.691E-01    0.923E-02
DAV:   2    -0.627664319615E+03   -0.33734E-03   -0.33380E-03 13104   0.120E-01    0.577E-02
DAV:   3    -0.627664316460E+03    0.31550E-05   -0.93915E-05  6768   0.274E-02
 126 F= -.62766432E+03 E0= -.62766432E+03  d E =-.593411E-03  mag=    20.0000
       N       E                     dE             d eps       ncg     rms          rms(c)
DAV:   1    -0.627663477764E+03    0.84185E-03   -0.10613E-01 10776   0.635E-01    0.665E-02
DAV:   2    -0.627663764880E+03   -0.28712E-03   -0.29198E-03 12564   0.112E-01    0.365E-02
DAV:   3    -0.627663769378E+03   -0.44981E-05   -0.74924E-05  6084   0.217E-02
 127 F= -.62766377E+03 E0= -.62766377E+03  d E =0.547082E-03  mag=    20.0000
       N       E                     dE             d eps       ncg     rms          rms(c)
DAV:   1    -0.627663709765E+03    0.55115E-04   -0.43743E-01 10752   0.129E+00    0.133E-01
DAV:   2    -0.627664858021E+03   -0.11483E-02   -0.11796E-02 12648   0.225E-01    0.818E-02
DAV:   3    -0.627664868846E+03   -0.10825E-04   -0.42384E-04 10512   0.464E-02
 128 F= -.62766487E+03 E0= -.62766487E+03  d E =-.109947E-02  mag=    20.0000
       N       E                     dE             d eps       ncg     rms          rms(c)
DAV:   1    -0.627665012777E+03   -0.15476E-03   -0.11638E-02 10884   0.209E-01    0.406E-02
DAV:   2    -0.627665023654E+03   -0.10876E-04   -0.32871E-04  8412   0.424E-02
 129 F= -.62766502E+03 E0= -.62766502E+03  d E =-.154807E-03  mag=    20.0000
       N       E                     dE             d eps       ncg     rms          rms(c)
DAV:   1    -0.627665287580E+03   -0.27480E-03   -0.11937E-01 10776   0.672E-01    0.926E-02
DAV:   2    -0.627665585778E+03   -0.29820E-03   -0.31772E-03 13032   0.117E-01    0.586E-02
DAV:   3    -0.627665580100E+03    0.56774E-05   -0.97485E-05  7128   0.269E-02
 130 F= -.62766558E+03 E0= -.62766558E+03  d E =-.556447E-03  mag=    20.0000
       N       E                     dE             d eps       ncg     rms          rms(c)
DAV:   1    -0.627665838160E+03   -0.25238E-03   -0.69635E-02 10800   0.513E-01    0.679E-02
DAV:   2    -0.627666003769E+03   -0.16561E-03   -0.18213E-03 13260   0.893E-02    0.458E-02
DAV:   3    -0.627665999765E+03    0.40038E-05   -0.76519E-05  6300   0.242E-02
 131 F= -.62766600E+03 E0= -.62766600E+03  d E =-.419665E-03  mag=    20.0000
       N       E                     dE             d eps       ncg     rms          rms(c)
DAV:   1    -0.627666265337E+03   -0.26157E-03   -0.14303E-01 10752   0.734E-01    0.831E-02
DAV:   2    -0.627666608319E+03   -0.34298E-03   -0.37422E-03 13368   0.127E-01    0.656E-02
DAV:   3    -0.627666596785E+03    0.11534E-04   -0.11928E-04  7092   0.301E-02
 132 F= -.62766660E+03 E0= -.62766660E+03  d E =-.597020E-03  mag=    20.0000
       N       E                     dE             d eps       ncg     rms          rms(c)
DAV:   1    -0.627666709524E+03   -0.10121E-03   -0.60197E-03 10800   0.151E-01    0.322E-02
DAV:   2    -0.627666714530E+03   -0.50060E-05   -0.14852E-04  6576   0.289E-02
 133 F= -.62766671E+03 E0= -.62766671E+03  d E =-.117745E-03  mag=    20.0000
       N       E                     dE             d eps       ncg     rms          rms(c)
DAV:   1    -0.627666879349E+03   -0.16982E-03   -0.18084E-01 10752   0.825E-01    0.107E-01
DAV:   2    -0.627667379949E+03   -0.50060E-03   -0.46710E-03 12960   0.139E-01    0.656E-02
DAV:   3    -0.627667389130E+03   -0.91806E-05   -0.15785E-04  7512   0.287E-02
 134 F= -.62766739E+03 E0= -.62766739E+03  d E =-.674600E-03  mag=    20.0000
       N       E                     dE             d eps       ncg     rms          rms(c)
DAV:   1    -0.627666470012E+03    0.90994E-03   -0.12414E-01 10752   0.686E-01    0.828E-02
DAV:   2    -0.627666829533E+03   -0.35952E-03   -0.34611E-03 12648   0.122E-01    0.493E-02
DAV:   3    -0.627666836300E+03   -0.67669E-05   -0.89082E-05  6372   0.245E-02
 135 F= -.62766684E+03 E0= -.62766684E+03  d E =0.552830E-03  mag=    20.0000
       N       E                     dE             d eps       ncg     rms          rms(c)
DAV:   1    -0.627666982685E+03   -0.15315E-03   -0.22040E-01 10752   0.913E-01    0.955E-02
DAV:   2    -0.627667561362E+03   -0.57868E-03   -0.58721E-03 12312   0.156E-01    0.500E-02
DAV:   3    -0.627667563957E+03   -0.25945E-05   -0.13544E-04  7224   0.278E-02
 136 F= -.62766756E+03 E0= -.62766756E+03  d E =-.727657E-03  mag=    20.0000
       N       E                     dE             d eps       ncg     rms          rms(c)
DAV:   1    -0.627667814129E+03   -0.25277E-03   -0.59292E-02 10776   0.472E-01    0.572E-02
DAV:   2    -0.627667944811E+03   -0.13068E-03   -0.15055E-03 12648   0.802E-02    0.374E-02
DAV:   3    -0.627667938976E+03    0.58343E-05   -0.54532E-05  5976   0.202E-02
 137 F= -.62766794E+03 E0= -.62766794E+03  d E =-.375019E-03  mag=    20.0000
       N       E                     dE             d eps       ncg     rms          rms(c)
DAV:   1    -0.627668093869E+03   -0.14906E-03   -0.14184E-02 10800   0.231E-01    0.362E-02
DAV:   2    -0.627668115294E+03   -0.21425E-04   -0.32774E-04  8088   0.402E-02
 138 F= -.62766812E+03 E0= -.62766812E+03  d E =-.176317E-03  mag=    20.0000
       N       E                     dE             d eps       ncg     rms          rms(c)
DAV:   1    -0.627668188462E+03   -0.94593E-04   -0.18602E-01 10752   0.841E-01    0.174E-01
DAV:   2    -0.627668718207E+03   -0.52975E-03   -0.51927E-03 13152   0.153E-01    0.995E-02
DAV:   3    -0.627668738481E+03   -0.20275E-04   -0.22381E-04  8568   0.433E-02
 139 F= -.62766874E+03 E0= -.62766874E+03  d E =-.623188E-03  mag=    20.0000
       N       E                     dE             d eps       ncg     rms          rms(c)
DAV:   1    -0.627668118768E+03    0.59944E-03   -0.78819E-02 10752   0.549E-01    0.140E-01
DAV:   2    -0.627668333738E+03   -0.21497E-03   -0.25007E-03 13416   0.112E-01    0.834E-02
DAV:   3    -0.627668347826E+03   -0.14088E-04   -0.15797E-04  7656   0.406E-02
[...]
 261 F= -.62768852E+03 E0= -.62768852E+03  d E =-.111973E-03  mag=    20.0000
       N       E                     dE             d eps       ncg     rms          rms(c)
DAV:   1    -0.627688548228E+03   -0.19777E-04   -0.19350E-03 10344   0.885E-02    0.298E-02
DAV:   2    -0.627688550208E+03   -0.19801E-05   -0.76059E-05  5892   0.222E-02
 262 F= -.62768855E+03 E0= -.62768855E+03  d E =-.347508E-04  mag=    20.0000
       N       E                     dE             d eps       ncg     rms          rms(c)
DAV:   1    -0.627688618837E+03   -0.70609E-04   -0.37592E-02 10824   0.376E-01    0.468E-02
DAV:   2    -0.627688709518E+03   -0.90681E-04   -0.10048E-03 12300   0.656E-02    0.302E-02
DAV:   3    -0.627688709374E+03    0.14418E-06   -0.34542E-05  5868   0.155E-02
 263 F= -.62768871E+03 E0= -.62768871E+03  d E =-.159166E-03  mag=    20.0000
       N       E                     dE             d eps       ncg     rms          rms(c)
DAV:   1    -0.627688742245E+03   -0.32727E-04   -0.15314E-03  9984   0.758E-02    0.168E-02
DAV:   2    -0.627688744157E+03   -0.19122E-05   -0.41960E-05  5628   0.160E-02
 264 F= -.62768874E+03 E0= -.62768874E+03  d E =-.347835E-04  mag=    20.0000
       N       E                     dE             d eps       ncg     rms          rms(c)
DAV:   1    -0.627688712874E+03    0.29371E-04   -0.11102E-01 10752   0.646E-01    0.803E-02
DAV:   2    -0.627689015210E+03   -0.30234E-03   -0.28957E-03 13404   0.112E-01    0.491E-02
DAV:   3    -0.627689020817E+03   -0.56077E-05   -0.10444E-04  6576   0.242E-02
 265 F= -.62768902E+03 E0= -.62768902E+03  d E =-.276660E-03  mag=    20.0000
       N       E                     dE             d eps       ncg     rms          rms(c)
DAV:   1    -0.627689097048E+03   -0.81839E-04   -0.22087E-02 10800   0.288E-01    0.369E-02
DAV:   2    -0.627689141579E+03   -0.44530E-04   -0.54317E-04 10236   0.480E-02
 266 F= -.62768914E+03 E0= -.62768914E+03  d E =-.120762E-03  mag=    20.0000
       N       E                     dE             d eps       ncg     rms          rms(c)
DAV:   1    -0.627689188757E+03   -0.91709E-04   -0.57008E-02 10800   0.461E-01    0.647E-02
DAV:   2    -0.627689340968E+03   -0.15221E-03   -0.14624E-03 12924   0.780E-02    0.407E-02
DAV:   3    -0.627689340892E+03    0.76077E-07   -0.42421E-05  6000   0.167E-02
 267 F= -.62768934E+03 E0= -.62768934E+03  d E =-.199313E-03  mag=    20.0000
       N       E                     dE             d eps       ncg     rms          rms(c)
DAV:   1    -0.627689406673E+03   -0.65704E-04   -0.14821E-02 10800   0.236E-01    0.339E-02
DAV:   2    -0.627689436424E+03   -0.29751E-04   -0.35324E-04  7932   0.400E-02
 268 F= -.62768944E+03 E0= -.62768944E+03  d E =-.955315E-04  mag=    20.0000
       N       E                     dE             d eps       ncg     rms          rms(c)
DAV:   1    -0.627689536089E+03   -0.12942E-03   -0.16484E-02 11028   0.254E-01    0.637E-02
DAV:   2    -0.627689536655E+03   -0.56617E-06   -0.69104E-04 12576   0.638E-02
 269 F= -.62768954E+03 E0= -.62768954E+03  d E =-.100232E-03  mag=    20.0000
       N       E                     dE             d eps       ncg     rms          rms(c)
DAV:   1    -0.627689580242E+03   -0.44153E-04   -0.64978E-03 10896   0.158E-01    0.316E-02
DAV:   2    -0.627689590626E+03   -0.10384E-04   -0.16437E-04  7380   0.322E-02
 270 F= -.62768959E+03 E0= -.62768959E+03  d E =-.539710E-04  mag=    20.0000
       N       E                     dE             d eps       ncg     rms          rms(c)
DAV:   1    -0.627689568656E+03    0.11586E-04   -0.70936E-04  9804   0.549E-02    0.198E-02
DAV:   2    -0.627689569201E+03   -0.54504E-06   -0.26596E-05  5700   0.140E-02
 271 F= -.62768957E+03 E0= -.62768957E+03  d E =0.214250E-04  mag=    20.0000
       N       E                     dE             d eps       ncg     rms          rms(c)
DAV:   1    -0.627689627546E+03   -0.58890E-04   -0.16776E-02 10824   0.252E-01    0.403E-02
DAV:   2    -0.627689662990E+03   -0.35444E-04   -0.45682E-04  9948   0.485E-02
 272 F= -.62768966E+03 E0= -.62768966E+03  d E =-.937885E-04  mag=    20.0000
       N       E                     dE             d eps       ncg     rms          rms(c)
DAV:   1    -0.627689801448E+03   -0.17390E-03   -0.38244E-02 10860   0.390E-01    0.923E-02
DAV:   2    -0.627689778519E+03    0.22929E-04   -0.14000E-03 13356   0.893E-02    0.663E-02
DAV:   3    -0.627689760879E+03    0.17640E-04   -0.10609E-04  6780   0.357E-02
 273 F= -.62768976E+03 E0= -.62768976E+03  d E =-.978890E-04  mag=    20.0000
       N       E                     dE             d eps       ncg     rms          rms(c)
DAV:   1    -0.627689797235E+03   -0.18716E-04   -0.14849E-03 10248   0.736E-02    0.206E-02
DAV:   2    -0.627689801693E+03   -0.44582E-05   -0.79663E-05  6192   0.227E-02
 274 F= -.62768980E+03 E0= -.62768980E+03  d E =-.408140E-04  mag=    20.0000
       N       E                     dE             d eps       ncg     rms          rms(c)
DAV:   1    -0.627689872911E+03   -0.75676E-04   -0.30448E-03 11256   0.114E-01    0.448E-02
DAV:   2    -0.627689851927E+03    0.20984E-04   -0.13872E-04  5844   0.331E-02
 275 F= -.62768985E+03 E0= -.62768985E+03  d E =-.502340E-04  mag=    20.0000
       N       E                     dE             d eps       ncg     rms          rms(c)
DAV:   1    -0.627689875756E+03   -0.28458E-05   -0.21490E-02 10824   0.289E-01    0.762E-02
DAV:   2    -0.627689910139E+03   -0.34383E-04   -0.72812E-04 12156   0.640E-02
 276 F= -.62768991E+03 E0= -.62768991E+03  d E =-.582127E-04  mag=    20.0000
       N       E                     dE             d eps       ncg     rms          rms(c)
DAV:   1    -0.627689984271E+03   -0.10851E-03   -0.10167E-02 10836   0.194E-01    0.484E-02
DAV:   2    -0.627689995895E+03   -0.11624E-04   -0.50083E-04 10476   0.550E-02
 277 F= -.62769000E+03 E0= -.62769000E+03  d E =-.857555E-04  mag=    20.0000
       N       E                     dE             d eps       ncg     rms          rms(c)
DAV:   1    -0.627690049841E+03   -0.65570E-04   -0.16758E-02 10848   0.253E-01    0.423E-02
DAV:   2    -0.627690089960E+03   -0.40120E-04   -0.48417E-04 10020   0.523E-02
 278 F= -.62769009E+03 E0= -.62769009E+03  d E =-.940653E-04  mag=    20.0000
       N       E                     dE             d eps       ncg     rms          rms(c)
DAV:   1    -0.627690151386E+03   -0.10155E-03   -0.20802E-02 10848   0.280E-01    0.416E-02
DAV:   2    -0.627690201158E+03   -0.49773E-04   -0.56272E-04 11184   0.523E-02
 279 F= -.62769020E+03 E0= -.62769020E+03  d E =-.111198E-03  mag=    20.0000
       N       E                     dE             d eps       ncg     rms          rms(c)
DAV:   1    -0.627690216463E+03   -0.65077E-04   -0.40941E-04  9036   0.405E-02    0.177E-02
DAV:   2    -0.627690215123E+03    0.13394E-05   -0.17905E-05  5712   0.114E-02
 280 F= -.62769022E+03 E0= -.62769022E+03  d E =-.139647E-04  mag=    20.0000
       N       E                     dE             d eps       ncg     rms          rms(c)
DAV:   1    -0.627690075919E+03    0.14054E-03   -0.13178E-02 10836   0.223E-01    0.446E-02
DAV:   2    -0.627690117763E+03   -0.41844E-04   -0.34229E-04  7908   0.416E-02
 281 F= -.62769012E+03 E0= -.62769012E+03  d E =0.973601E-04  mag=    20.0000
       N       E                     dE             d eps       ncg     rms          rms(c)
DAV:   1    -0.627690053627E+03    0.22292E-04   -0.13034E-02 10848   0.209E-01    0.873E-02
DAV:   2    -0.627690104482E+03   -0.50855E-04   -0.40456E-04  9480   0.542E-02
 282 F= -.62769010E+03 E0= -.62769010E+03  d E =0.132811E-04  mag=    20.0000
       N       E                     dE             d eps       ncg     rms          rms(c)
DAV:   1    -0.627690197963E+03   -0.14434E-03   -0.42446E-02 10776   0.404E-01    0.723E-02
DAV:   2    -0.627690303143E+03   -0.10518E-03   -0.13352E-03 12612   0.810E-02    0.520E-02
DAV:   3    -0.627690302484E+03    0.65842E-06   -0.60817E-05  6168   0.243E-02
 283 F= -.62769030E+03 E0= -.62769030E+03  d E =-.198002E-03  mag=    20.0000
       N       E                     dE             d eps       ncg     rms          rms(c)
DAV:   1    -0.627690322160E+03   -0.19018E-04   -0.42676E-03 10812   0.123E-01    0.558E-02
DAV:   2    -0.627690324869E+03   -0.27091E-05   -0.11977E-04  6168   0.302E-02
 284 F= -.62769032E+03 E0= -.62769032E+03  d E =-.223851E-04  mag=    20.0000
       N       E                     dE             d eps       ncg     rms          rms(c)
DAV:   1    -0.627690183891E+03    0.13827E-03   -0.25947E-02 10800   0.288E-01    0.128E-01
DAV:   2    -0.627690365484E+03   -0.18159E-03   -0.65698E-04 11472   0.632E-02    0.737E-02
DAV:   3    -0.627690399298E+03   -0.33814E-04   -0.55686E-05  6612   0.235E-02
 285 F= -.62769040E+03 E0= -.62769040E+03  d E =-.744288E-04  mag=    20.0000
       N       E                     dE             d eps       ncg     rms          rms(c)
DAV:   1    -0.627690414655E+03   -0.49171E-04   -0.31286E-02 10776   0.343E-01    0.645E-02
DAV:   2    -0.627690512475E+03   -0.97820E-04   -0.98223E-04 12492   0.693E-02
 286 F= -.62769051E+03 E0= -.62769051E+03  d E =-.113177E-03  mag=    20.0000
       N       E                     dE             d eps       ncg     rms          rms(c)
DAV:   1    -0.627690561487E+03   -0.14683E-03   -0.33256E-03 10896   0.119E-01    0.427E-02
DAV:   2    -0.627690556283E+03    0.52040E-05   -0.18942E-04  7404   0.358E-02
 287 F= -.62769056E+03 E0= -.62769056E+03  d E =-.438078E-04  mag=    20.0000
       N       E                     dE             d eps       ncg     rms          rms(c)
DAV:   1    -0.627690606587E+03   -0.45100E-04   -0.25547E-02 10776   0.318E-01    0.880E-02
DAV:   2    -0.627690632705E+03   -0.26118E-04   -0.11702E-03 13764   0.808E-02    0.830E-02
DAV:   3    -0.627690614180E+03    0.18525E-04   -0.11063E-04  7008   0.329E-02
 288 F= -.62769061E+03 E0= -.62769061E+03  d E =-.578970E-04  mag=    20.0000
       N       E                     dE             d eps       ncg     rms          rms(c)
DAV:   1    -0.627690724552E+03   -0.91847E-04   -0.69402E-03 11136   0.168E-01    0.497E-02
DAV:   2    -0.627690717477E+03    0.70750E-05   -0.50589E-04 11700   0.585E-02
 289 F= -.62769072E+03 E0= -.62769072E+03  d E =-.103297E-03  mag=    20.0000
       N       E                     dE             d eps       ncg     rms          rms(c)
DAV:   1    -0.627690729704E+03   -0.51527E-05   -0.47223E-02 10752   0.428E-01    0.757E-02
DAV:   2    -0.627690801022E+03   -0.71317E-04   -0.17895E-03 13980   0.965E-02    0.700E-02
DAV:   3    -0.627690783083E+03    0.17939E-04   -0.10578E-04  6864   0.281E-02
 290 F= -.62769078E+03 E0= -.62769078E+03  d E =-.656061E-04  mag=    20.0000
       N       E                     dE             d eps       ncg     rms          rms(c)
DAV:   1    -0.627690689154E+03    0.11187E-03   -0.10961E-02 10848   0.207E-01    0.360E-02
DAV:   2    -0.627690716066E+03   -0.26912E-04   -0.33366E-04  7644   0.441E-02
 291 F= -.62769072E+03 E0= -.62769072E+03  d E =0.670169E-04  mag=    20.0000
       N       E                     dE             d eps       ncg     rms          rms(c)
DAV:   1    -0.627690677534E+03    0.11620E-04   -0.10052E-01 10752   0.619E-01    0.146E-01
DAV:   2    -0.627690787099E+03   -0.10957E-03   -0.41956E-03 13884   0.148E-01    0.140E-01
DAV:   3    -0.627690745463E+03    0.41637E-04   -0.27877E-04  9336   0.462E-02
 292 F= -.62769075E+03 E0= -.62769075E+03  d E =-.293967E-04  mag=    20.0000
       N       E                     dE             d eps       ncg     rms          rms(c)
DAV:   1    -0.627690922433E+03   -0.13533E-03   -0.26983E-02 10752   0.308E-01    0.718E-02
DAV:   2    -0.627691031125E+03   -0.10869E-03   -0.16895E-03 14004   0.853E-02    0.825E-02
DAV:   3    -0.627690995494E+03    0.35630E-04   -0.97570E-05  6876   0.293E-02
 293 F= -.62769100E+03 E0= -.62769100E+03  d E =-.250032E-03  mag=    20.0000
       N       E                     dE             d eps       ncg     rms          rms(c)
DAV:   1    -0.627691036905E+03   -0.57806E-05   -0.26266E-03 11076   0.104E-01    0.440E-02
DAV:   2    -0.627691024561E+03    0.12345E-04   -0.13357E-04  6948   0.309E-02
 294 F= -.62769102E+03 E0= -.62769102E+03  d E =-.290664E-04  mag=    20.0000
       N       E                     dE             d eps       ncg     rms          rms(c)
DAV:   1    -0.627691039273E+03   -0.23681E-05   -0.39440E-02 10776   0.389E-01    0.642E-02
DAV:   2    -0.627691146991E+03   -0.10772E-03   -0.11199E-03 11964   0.753E-02    0.463E-02
DAV:   3    -0.627691147231E+03   -0.24001E-06   -0.48895E-05  5904   0.249E-02
 295 F= -.62769115E+03 E0= -.62769115E+03  d E =-.122670E-03  mag=    20.0000
       N       E                     dE             d eps       ncg     rms          rms(c)
DAV:   1    -0.627691160268E+03   -0.13277E-04   -0.99183E-03 10812   0.190E-01    0.595E-02
DAV:   2    -0.627691183383E+03   -0.23116E-04   -0.28354E-04  8712   0.475E-02
 296 F= -.62769118E+03 E0= -.62769118E+03  d E =-.361527E-04  mag=    20.0000
       N       E                     dE             d eps       ncg     rms          rms(c)
DAV:   1    -0.627691255007E+03   -0.94740E-04   -0.20709E-02 10836   0.281E-01    0.492E-02
DAV:   2    -0.627691297675E+03   -0.42668E-04   -0.62450E-04 11520   0.565E-02
 297 F= -.62769130E+03 E0= -.62769130E+03  d E =-.114292E-03  mag=    20.0000
       N       E                     dE             d eps       ncg     rms          rms(c)
DAV:   1    -0.627691365151E+03   -0.11014E-03   -0.23509E-02 10776   0.303E-01    0.707E-02
DAV:   2    -0.627691401560E+03   -0.36408E-04   -0.84333E-04 12672   0.687E-02
 298 F= -.62769140E+03 E0= -.62769140E+03  d E =-.103884E-03  mag=    20.0000
       N       E                     dE             d eps       ncg     rms          rms(c)
DAV:   1    -0.627691380394E+03   -0.15242E-04   -0.33448E-04  9384   0.422E-02    0.271E-02
DAV:   2    -0.627691379420E+03    0.97343E-06   -0.28696E-05  5676   0.146E-02
 299 F= -.62769138E+03 E0= -.62769138E+03  d E =0.221395E-04  mag=    20.0000
       N       E                     dE             d eps       ncg     rms          rms(c)
DAV:   1    -0.627691307564E+03    0.72830E-04   -0.55191E-03 10848   0.148E-01    0.419E-02
DAV:   2    -0.627691315713E+03   -0.81491E-05   -0.16051E-04  6444   0.309E-02
 300 F= -.62769132E+03 E0= -.62769132E+03  d E =0.637073E-04  mag=    20.0000
       N       E                     dE             d eps       ncg     rms          rms(c)
DAV:   1    -0.627691020011E+03    0.28755E-03   -0.29920E-02 10752   0.313E-01    0.160E-01
DAV:   2    -0.627691137106E+03   -0.11709E-03   -0.12587E-03 13272   0.851E-02    0.104E-01
DAV:   3    -0.627691151951E+03   -0.14845E-04   -0.14819E-04  8124   0.377E-02
 301 F= -.62769115E+03 E0= -.62769115E+03  d E =0.163762E-03  mag=    20.0000
       N       E                     dE             d eps       ncg     rms          rms(c)
DAV:   1    -0.627691383764E+03   -0.24666E-03   -0.86214E-02 10752   0.579E-01    0.187E-01
DAV:   2    -0.627691483601E+03   -0.99837E-04   -0.32448E-03 14400   0.132E-01    0.122E-01
DAV:   3    -0.627691483633E+03   -0.31949E-07   -0.32193E-04  9828   0.563E-02
 302 F= -.62769148E+03 E0= -.62769148E+03  d E =-.331682E-03  mag=    20.0000
       N       E                     dE             d eps       ncg     rms          rms(c)
DAV:   1    -0.627691695578E+03   -0.21198E-03   -0.35232E-02 10908   0.381E-01    0.124E-01
DAV:   2    -0.627691594299E+03    0.10128E-03   -0.15344E-03 14112   0.919E-02    0.860E-02
DAV:   3    -0.627691562508E+03    0.31790E-04   -0.15036E-04  8400   0.410E-02
 303 F= -.62769156E+03 E0= -.62769156E+03  d E =-.788758E-04  mag=    20.0000
       N       E                     dE             d eps       ncg     rms          rms(c)
DAV:   1    -0.627691615871E+03   -0.21572E-04   -0.19335E-02 10800   0.269E-01    0.471E-02
DAV:   2    -0.627691660697E+03   -0.44826E-04   -0.52582E-04 10380   0.498E-02
 304 F= -.62769166E+03 E0= -.62769166E+03  d E =-.981884E-04  mag=    20.0000
       N       E                     dE             d eps       ncg     rms          rms(c)
DAV:   1    -0.627691685566E+03   -0.69695E-04   -0.21922E-03 10488   0.916E-02    0.237E-02
DAV:   2    -0.627691686212E+03   -0.64576E-06   -0.67351E-05  5844   0.206E-02
 305 F= -.62769169E+03 E0= -.62769169E+03  d E =-.255152E-04  mag=    20.0000
       N       E                     dE             d eps       ncg     rms          rms(c)
DAV:   1    -0.627691766650E+03   -0.81083E-04   -0.56403E-02 10752   0.471E-01    0.110E-01
DAV:   2    -0.627691835406E+03   -0.68757E-04   -0.23811E-03 14892   0.117E-01    0.101E-01
DAV:   3    -0.627691799191E+03    0.36216E-04   -0.20537E-04  8400   0.453E-02
 306 F= -.62769180E+03 E0= -.62769180E+03  d E =-.112979E-03  mag=    20.0000
       N       E                     dE             d eps       ncg     rms          rms(c)
DAV:   1    -0.627691788958E+03    0.46448E-04   -0.12118E-02 10752   0.203E-01    0.743E-02
DAV:   2    -0.627691839631E+03   -0.50673E-04   -0.57582E-04 10956   0.581E-02
 307 F= -.62769184E+03 E0= -.62769184E+03  d E =-.404403E-04  mag=    20.0000
       N       E                     dE             d eps       ncg     rms          rms(c)
DAV:   1    -0.627691767699E+03    0.21259E-04   -0.46343E-02 10752   0.416E-01    0.859E-02
DAV:   2    -0.627691922475E+03   -0.15478E-03   -0.19536E-03 14352   0.985E-02    0.916E-02
DAV:   3    -0.627691900527E+03    0.21948E-04   -0.10986E-04  6996   0.298E-02
 308 F= -.62769190E+03 E0= -.62769190E+03  d E =-.608956E-04  mag=    20.0000
       N       E                     dE             d eps       ncg     rms          rms(c)
DAV:   1    -0.627691869525E+03    0.52950E-04   -0.13334E-03 10008   0.727E-02    0.434E-02
DAV:   2    -0.627691874164E+03   -0.46392E-05   -0.64794E-05  5724   0.198E-02
 309 F= -.62769187E+03 E0= -.62769187E+03  d E =0.263624E-04  mag=    20.0000
       N       E                     dE             d eps       ncg     rms          rms(c)
DAV:   1    -0.627691606784E+03    0.26274E-03   -0.83343E-02 10752   0.540E-01    0.126E-01
DAV:   2    -0.627691917480E+03   -0.31070E-03   -0.39924E-03 13980   0.137E-01    0.155E-01
DAV:   3    -0.627691880243E+03    0.37237E-04   -0.27115E-04  9084   0.402E-02
 310 F= -.62769188E+03 E0= -.62769188E+03  d E =-.607885E-05  mag=    20.0000
       N       E                     dE             d eps       ncg     rms          rms(c)
DAV:   1    -0.627692052388E+03   -0.13491E-03   -0.38236E-02 10752   0.361E-01    0.838E-02
DAV:   2    -0.627692192521E+03   -0.14013E-03   -0.26250E-03 14400   0.103E-01    0.106E-01
DAV:   3    -0.627692130791E+03    0.61730E-04   -0.14403E-04  7464   0.335E-02
 311 F= -.62769213E+03 E0= -.62769213E+03  d E =-.250548E-03  mag=    20.0000
       N       E                     dE             d eps       ncg     rms          rms(c)
DAV:   1    -0.627692168623E+03    0.23897E-04   -0.19350E-02 10968   0.278E-01    0.916E-02
DAV:   2    -0.627692127845E+03    0.40778E-04   -0.81488E-04 12648   0.682E-02
 312 F= -.62769213E+03 E0= -.62769213E+03  d E =0.294574E-05  mag=    20.0000
       N       E                     dE             d eps       ncg     rms          rms(c)
DAV:   1    -0.627692281747E+03   -0.11312E-03   -0.15225E-02 10800   0.246E-01    0.757E-02
DAV:   2    -0.627692248643E+03    0.33104E-04   -0.77073E-04 12540   0.703E-02
 313 F= -.62769225E+03 E0= -.62769225E+03  d E =-.120798E-03  mag=    20.0000
       N       E                     dE             d eps       ncg     rms          rms(c)
DAV:   1    -0.627692323076E+03   -0.41328E-04   -0.17879E-02 11028   0.270E-01    0.905E-02
DAV:   2    -0.627692286385E+03    0.36690E-04   -0.74222E-04 12180   0.631E-02
 314 F= -.62769229E+03 E0= -.62769229E+03  d E =-.377421E-04  mag=    20.0000
