BiTiFeO                                 
           1
     5.495431    0.000000    0.006540
     0.000000    5.478705    0.000000
     0.048427    0.000000   40.532488
   Bi   Ti   O    Fe
  20  12  60   4
Direct configuration=     1
   0.24484409  0.23757862  0.00000000
   0.74484408  0.76242137  0.00000000
   0.24484409  0.73757863  0.50000000
   0.74484408  0.26242140  0.50000000
   0.25198972  0.24830766  0.10393570
   0.75198966  0.75169236  0.89606434
   0.75198966  0.75169236  0.10393570
   0.25198972  0.24830766  0.89606434
   0.25198972  0.74830764  0.60393566
   0.75198966  0.25169236  0.39606428
   0.75198966  0.25169236  0.60393566
   0.25198972  0.74830764  0.39606428
   0.22412699  0.27433315  0.21935007
   0.72412699  0.72566688  0.78064990
   0.72412699  0.72566688  0.21935007
   0.22412699  0.27433315  0.78064990
   0.22412699  0.77433312  0.71935010
   0.72412699  0.22566684  0.28064990
   0.72412699  0.22566684  0.71935010
   0.22412699  0.77433312  0.28064990
   0.29682383  0.25109082  0.34797305
   0.29682383  0.75109082  0.84797305
   0.79682386  0.74890918  0.34797305
   0.79682386  0.24890919  0.84797305
   0.29682383  0.25109082  0.65202695
   0.29682383  0.75109082  0.15202695
   0.79682386  0.74890918  0.65202695
   0.79682386  0.24890919  0.15202695
   0.29357013  0.24638395  0.54935825
   0.29357013  0.74638396  0.04935827
   0.79357010  0.75361604  0.54935825
   0.79357010  0.25361604  0.04935827
   0.31881350  0.15770908  0.50000000
   0.81881350  0.84229094  0.50000000
   0.31881350  0.65770906  0.00000000
   0.81881350  0.34229094  0.00000000
   0.60082728  0.55501008  0.05564614
   0.10082728  0.44498989  0.94435388
   0.10082728  0.44498989  0.05564614
   0.60082728  0.55501008  0.94435388
   0.60082728  0.05501010  0.55564612
   0.10082728  0.94498992  0.44435385
   0.10082728  0.94498992  0.55564612
   0.60082728  0.05501010  0.44435385
   0.32772058  0.32494432  0.40226784
   0.82772058  0.67505568  0.59773213
   0.82772058  0.67505568  0.40226784
   0.32772058  0.32494432  0.59773213
   0.32772058  0.82494432  0.90226787
   0.82772058  0.17505567  0.09773216
   0.82772058  0.17505567  0.90226787
   0.32772058  0.82494432  0.09773216
   0.53021055  0.47461614  0.13739407
   0.03021055  0.52538383  0.86260593
   0.03021055  0.52538383  0.13739407
   0.53021055  0.47461614  0.86260593
   0.53021055  0.97461617  0.63739407
   0.03021055  0.02538385  0.36260590
   0.03021055  0.02538385  0.63739407
   0.53021055  0.97461617  0.36260590
   0.29461476  0.18484382  0.30443299
   0.79461479  0.81515616  0.69556701
   0.79461479  0.81515616  0.30443299
   0.29461476  0.18484382  0.69556701
   0.29461476  0.68484384  0.80443299
   0.79461479  0.31515619  0.19556700
   0.79461479  0.31515619  0.80443299
   0.29461476  0.68484384  0.19556700
   0.49390233  0.49391797  0.25123006
   0.99390238  0.50608200  0.74876994
   0.99390238  0.50608200  0.25123006
   0.49390233  0.49391797  0.74876994
   0.49390233  0.99391800  0.75123006
   0.99390238  0.00608201  0.24876994
   0.99390238  0.00608201  0.75123006
   0.49390233  0.99391800  0.24876994
   0.00880992  0.95784479  0.03788698
   0.50880992  0.04215522  0.96211302
   0.50880992  0.04215522  0.03788698
   0.00880992  0.95784479  0.96211302
   0.00880992  0.45784476  0.53788698
   0.50880992  0.54215521  0.46211302
   0.50880992  0.54215521  0.53788698
   0.00880992  0.45784476  0.46211302
   0.10677507  0.05355787  0.15066576
   0.60677504  0.94644213  0.84933424
   0.60677504  0.94644213  0.15066576
   0.10677507  0.05355787  0.84933424
   0.10677507  0.55355787  0.65066576
   0.60677504  0.44644213  0.34933424
   0.60677504  0.44644213  0.65066576
   0.10677507  0.55355787  0.34933424
   0.29357013  0.24638395  0.45064172
   0.29357013  0.74638396  0.95064175
   0.79357010  0.75361604  0.45064172
   0.79357010  0.25361604  0.95064175
BiTiFeO                                 
           1
     5.517139    0.000000   -0.000900
     0.000000    5.502254    0.000000
    -0.006578    0.000000   40.800134
   Bi   Ti   O    Fe
  20  12  60   4
Direct configuration=     2
   0.24569162  0.23720610 -0.00349707
   0.74569161  0.76279389 -0.00349707
   0.24569162  0.73720611  0.49650293
   0.74569161  0.26279392  0.49650293
   0.25245713  0.24861274  0.10459006
   0.75050051  0.75220902  0.89686222
   0.75245707  0.75138727  0.10459006
   0.25050057  0.24779100  0.89686222
   0.25245713  0.74861273  0.60459002
   0.75050051  0.25220902  0.39686216
   0.75245707  0.25138727  0.60459002
   0.25050057  0.74779098  0.39686216
   0.22482627  0.27301465  0.22010579
   0.72354502  0.72437731  0.78144275
   0.72482627  0.72698538  0.22010579
   0.22354502  0.27562272  0.78144275
   0.22482627  0.77301462  0.72010582
   0.72354502  0.22437726  0.28144275
   0.72482627  0.22698533  0.72010582
   0.22354502  0.77562269  0.28144275
   0.29665411  0.25159759  0.34902903
   0.29665411  0.75159759  0.84902903
   0.79665414  0.74840241  0.34902903
   0.79665414  0.24840242  0.84902903
   0.29696938  0.25046806  0.65302048
   0.29696938  0.75046806  0.15302048
   0.79696941  0.74953194  0.65302048
   0.79696941  0.24953196  0.15302048
   0.29091398  0.24588894  0.54793305
   0.29091398  0.74588895  0.04793307
   0.79091395  0.75411105  0.54793305
   0.79091395  0.25411105  0.04793307
   0.31859452  0.16020654  0.50214767
   0.81859452  0.83979347  0.50214767
   0.31859452  0.66020653  0.00214767
   0.81859452  0.33979347  0.00214767
   0.60056726  0.55087109  0.05596407
   0.10296364  0.44447177  0.94514665
   0.10056726  0.44912888  0.05596407
   0.60296364  0.55552820  0.94514665
   0.60056726  0.05087111  0.55596405
   0.10296364  0.94447180  0.44514662
   0.10056726  0.94912891  0.55596405
   0.60296364  0.05552821  0.44514662
   0.32764509  0.32506506  0.40243990
   0.82668621  0.67627457  0.59697145
   0.82764509  0.67493494  0.40243990
   0.32668621  0.32372543  0.59697145
   0.32764509  0.82506506  0.90243993
   0.82668621  0.17627455  0.09697148
   0.82764509  0.17493493  0.90243993
   0.32668621  0.82372543  0.09697148
   0.52977370  0.47470244  0.13707496
   0.03059909  0.52545116  0.86225592
   0.02977369  0.52529753  0.13707496
   0.53059910  0.47454881  0.86225592
   0.52977370  0.97470247  0.63707496
   0.03059909  0.02545118  0.36225589
   0.02977369  0.02529755  0.63707496
   0.53059910  0.97454884  0.36225589
   0.29515112  0.18323520  0.30362174
   0.79415041  0.81358704  0.69481676
   0.79515115  0.81676478  0.30362174
   0.29415038  0.18641295  0.69481676
   0.29515112  0.68323522  0.80362174
   0.79415041  0.31358707  0.19481675
   0.79515115  0.31676481  0.80362174
   0.29415038  0.68641296  0.19481675
   0.49374333  0.49413144  0.25078667
   0.99415384  0.50626696  0.74829644
   0.99374339  0.50586853  0.25078667
   0.49415379  0.49373301  0.74829644
   0.49374333  0.99413147  0.75078667
   0.99415384  0.00626697  0.24829644
   0.99374339  0.00586855  0.75078667
   0.49415379  0.99373304  0.24829644
   0.01201046  0.95926352  0.03929871
   0.50880151  0.04195726  0.96307859
   0.51201046  0.04073650  0.03929871
   0.00880151  0.95804276  0.96307859
   0.01201046  0.45926349  0.53929871
   0.50880151  0.54195724  0.46307859
   0.51201046  0.54073648  0.53929871
   0.00880151  0.45804273  0.46307859
   0.10707673  0.05426441  0.15029943
   0.60664568  0.94673219  0.84895085
   0.60707671  0.94573559  0.15029943
   0.10664570  0.05326781  0.84895085
   0.10707673  0.55426441  0.65029943
   0.60664568  0.44673219  0.34895085
   0.60707671  0.44573559  0.65029943
   0.10664570  0.55326781  0.34895085
   0.29227932  0.24482465  0.44936385
   0.29227932  0.74482467  0.94936388
   0.79227929  0.75517533  0.44936385
   0.79227929  0.25517533  0.94936388
BiTiFeO                                 
           1
     5.516263    0.000000   -0.007937
     0.000000    5.501983    0.000000
    -0.058630    0.000000   40.709939
   Bi   Ti   O    Fe
  20  12  60   4
Direct configuration=     3
   0.24551056  0.23767056 -0.00310645
   0.74551054  0.76232943 -0.00310645
   0.24551056  0.73767057  0.49689355
   0.74551054  0.26232946  0.49689355
   0.25266648  0.24821041  0.10433968
   0.75080602  0.75187936  0.89689499
   0.75266642  0.75178960  0.10433968
   0.25080607  0.24812066  0.89689499
   0.25266648  0.74821040  0.60433964
   0.75080602  0.25187936  0.39689493
   0.75266642  0.25178960  0.60433964
   0.25080607  0.74812064  0.39689493
   0.22574301  0.27248832  0.21981053
   0.72336137  0.72458171  0.78140660
   0.72574301  0.72751171  0.21981053
   0.22336137  0.27541832  0.78140660
   0.22574301  0.77248829  0.71981056
   0.72336137  0.22458167  0.28140660
   0.72574301  0.22751166  0.71981056
   0.22336137  0.77541829  0.28140660
   0.29661988  0.25115005  0.34832261
   0.29661988  0.75115005  0.84832261
   0.79661991  0.74884995  0.34832261
   0.79661991  0.24884997  0.84832261
   0.29692402  0.25156605  0.65175588
   0.29692402  0.75156605  0.15175588
   0.79692405  0.74843395  0.65175588
   0.79692405  0.24843396  0.15175588
   0.29114885  0.24558631  0.54881362
   0.29114885  0.74558632  0.04881364
   0.79114882  0.75441368  0.54881362
   0.79114882  0.25441368  0.04881364
   0.31880322  0.16016549  0.50135243
   0.81880322  0.83983452  0.50135243
   0.31880322  0.66016548  0.00135243
   0.81880322  0.33983452  0.00135243
   0.60024732  0.55027145  0.05587664
   0.10316228  0.44431625  0.94520876
   0.10024732  0.44972852  0.05587664
   0.60316228  0.55568372  0.94520876
   0.60024732  0.05027146  0.55587662
   0.10316228  0.94431628  0.44520873
   0.10024732  0.94972855  0.55587662
   0.60316228  0.05568374  0.44520873
   0.32748034  0.32488071  0.40241014
   0.82629668  0.67666122  0.59682047
   0.82748034  0.67511929  0.40241014
   0.32629668  0.32333878  0.59682047
   0.32748034  0.82488071  0.90241017
   0.82629668  0.17666120  0.09682050
   0.82748034  0.17511927  0.90241017
   0.32629668  0.82333878  0.09682050
   0.52979875  0.47461766  0.13726733
   0.03032246  0.52539871  0.86238806
   0.02979874  0.52538231  0.13726733
   0.53032247  0.47460126  0.86238806
   0.52979875  0.97461769  0.63726733
   0.03032246  0.02539872  0.36238803
   0.02979874  0.02538232  0.63726733
   0.53032247  0.97460129  0.36238803
   0.29520376  0.18409241  0.30411102
   0.79376076  0.81499412  0.69595639
   0.79520379  0.81590758  0.30411102
   0.29376073  0.18500586  0.69595639
   0.29520376  0.68409242  0.80411102
   0.79376076  0.31499415  0.19595638
   0.79520379  0.31590761  0.80411102
   0.29376073  0.68500588  0.19595638
   0.49365270  0.49373850  0.25097884
   0.99400644  0.50580283  0.74842990
   0.99365276  0.50626147  0.25097884
   0.49400638  0.49419714  0.74842990
   0.49365270  0.99373853  0.75097884
   0.99400644  0.00580284  0.24842990
   0.99365276  0.00626148  0.75097884
   0.49400638  0.99419717  0.24842990
   0.01161463  0.95944898  0.03914459
   0.51049373  0.04092982  0.96266765
   0.51161463  0.04055104  0.03914459
   0.01049373  0.95907019  0.96266765
   0.01161463  0.45944895  0.53914459
   0.51049373  0.54092981  0.46266765
   0.51161463  0.54055102  0.53914459
   0.01049373  0.45907016  0.46266765
   0.10686654  0.05414776  0.15046277
   0.60669662  0.94654692  0.84902824
   0.60686652  0.94585224  0.15046277
   0.10669665  0.05345308  0.84902824
   0.10686654  0.55414776  0.65046277
   0.60669662  0.44654692  0.34902824
   0.60686652  0.44585224  0.65046277
   0.10669665  0.55345308  0.34902824
   0.29121349  0.24541103  0.44965929
   0.29121349  0.74541105  0.94965932
   0.79121346  0.75458895  0.44965929
   0.79121346  0.25458895  0.94965932
BiTiFeO                                 
           1
     5.505478    0.000000   -0.004509
     0.000000    5.491921    0.000000
    -0.033148    0.000000   40.724268
   Bi   Ti   O    Fe
  20  12  60   4
Direct configuration=     4
   0.24514677  0.23826821 -0.00315808
   0.74514675  0.76173178 -0.00315808
   0.24514677  0.73826822  0.49684192
   0.74514675  0.26173181  0.49684192
   0.25290471  0.24821580  0.10396875
   0.75031001  0.75170196  0.89681204
   0.75290465  0.75178421  0.10396875
   0.25031007  0.24829806  0.89681204
   0.25290471  0.74821579  0.60396871
   0.75031001  0.25170196  0.39681198
   0.75290465  0.25178421  0.60396871
   0.25031007  0.74829804  0.39681198
   0.22649960  0.27266421  0.21964075
   0.72298358  0.72501720  0.78116891
   0.72649960  0.72733582  0.21964075
   0.22298358  0.27498283  0.78116891
   0.22649960  0.77266418  0.71964078
   0.72298358  0.22501715  0.28116891
   0.72649960  0.22733577  0.71964078
   0.22298358  0.77498280  0.28116891
   0.29663045  0.25097186  0.34776566
   0.29663045  0.75097186  0.84776566
   0.79663048  0.74902814  0.34776566
   0.79663048  0.24902815  0.84776566
   0.29665198  0.25007560  0.65234187
   0.29665198  0.75007560  0.15234187
   0.79665201  0.74992440  0.65234187
   0.79665201  0.24992442  0.15234187
   0.29114491  0.24577763  0.54893658
   0.29114491  0.74577765  0.04893660
   0.79114488  0.75422235  0.54893658
   0.79114488  0.25422235  0.04893660
   0.31917521  0.16113903  0.50094084
   0.81917521  0.83886098  0.50094084
   0.31917521  0.66113902  0.00094084
   0.81917521  0.33886098  0.00094084
   0.59957120  0.54914380  0.05598841
   0.10394672  0.44357651  0.94552200
   0.09957120  0.45085617  0.05598841
   0.60394672  0.55642346  0.94552200
   0.59957120  0.04914381  0.55598840
   0.10394672  0.94357654  0.44552197
   0.09957120  0.95085620  0.55598840
   0.60394672  0.05642347  0.44552197
   0.32742504  0.32461675  0.40252101
   0.82565180  0.67712981  0.59682916
   0.82742504  0.67538325  0.40252101
   0.32565180  0.32287019  0.59682916
   0.32742504  0.82461675  0.90252104
   0.82565180  0.17712980  0.09682919
   0.82742504  0.17538323  0.90252104
   0.32565180  0.82287019  0.09682919
   0.52974174  0.47460444  0.13729781
   0.03001970  0.52542339  0.86257290
   0.02974173  0.52539553  0.13729781
   0.53001971  0.47457658  0.86257290
   0.52974174  0.97460447  0.63729781
   0.03001970  0.02542340  0.36257287
   0.02974173  0.02539555  0.63729781
   0.53001971  0.97457661  0.36257287
   0.29534835  0.18476404  0.30453844
   0.79343880  0.81378095  0.69545612
   0.79534838  0.81523594  0.30453844
   0.29343877  0.18621903  0.69545612
   0.29534835  0.68476406  0.80453844
   0.79343880  0.31378098  0.19545611
   0.79534838  0.31523597  0.80453844
   0.29343877  0.68621905  0.19545611
   0.49392457  0.49339157  0.25127327
   0.99398157  0.50530003  0.74871269
   0.99392463  0.50660840  0.25127327
   0.49398151  0.49469994  0.74871269
   0.49392457  0.99339160  0.75127327
   0.99398157  0.00530004  0.24871269
   0.99392463  0.00660842  0.75127327
   0.49398151  0.99469997  0.24871269
   0.01191465  0.95975087  0.03926269
   0.51269894  0.03947639  0.96224735
   0.51191465  0.04024915  0.03926269
   0.01269894  0.96052363  0.96224735
   0.01191465  0.45975084  0.53926269
   0.51269894  0.53947637  0.46224735
   0.51191465  0.54024913  0.53926269
   0.01269894  0.46052360  0.46224735
   0.10661249  0.05395644  0.15038920
   0.60687230  0.94615350  0.84915043
   0.60661246  0.94604356  0.15038920
   0.10687232  0.05384650  0.84915043
   0.10661249  0.55395644  0.65038920
   0.60687230  0.44615350  0.34915043
   0.60661246  0.44604356  0.65038920
   0.10687232  0.55384650  0.34915043
   0.28980485  0.24603695  0.44982115
   0.28980485  0.74603696  0.94982118
   0.78980482  0.75396304  0.44982115
   0.78980482  0.25396304  0.94982118
BiTiFeO                                 
           1
     5.513104    0.000000   -0.003876
     0.000000    5.500314    0.000000
    -0.028461    0.000000   40.782110
   Bi   Ti   O    Fe
  20  12  60   4
Direct configuration=     5
   0.24505696  0.23850879 -0.00360014
   0.74505695  0.76149120 -0.00360014
   0.24505696  0.73850880  0.49639986
   0.74505695  0.26149122  0.49639986
   0.25282419  0.24805285  0.10386197
   0.74960425  0.75193512  0.89685097
   0.75282413  0.75194717  0.10386197
   0.24960431  0.24806490  0.89685097
   0.25282419  0.74805283  0.60386193
   0.74960425  0.25193512  0.39685091
   0.75282413  0.25194717  0.60386193
   0.24960431  0.74806488  0.39685091
   0.22646922  0.27279980  0.21974206
   0.72318159  0.72543346  0.78126699
   0.72646922  0.72720023  0.21974206
   0.22318159  0.27456657  0.78126699
   0.22646922  0.77279977  0.71974209
   0.72318159  0.22543342  0.28126699
   0.72646922  0.22720019  0.71974209
   0.22318159  0.77456654  0.28126699
   0.29656314  0.25176134  0.34863347
   0.29656314  0.75176134  0.84863347
   0.79656317  0.74823866  0.34863347
   0.79656317  0.24823868  0.84863347
   0.29674219  0.25035603  0.65234365
   0.29674219  0.75035603  0.15234365
   0.79674222  0.74964397  0.65234365
   0.79674222  0.24964399  0.15234365
   0.29094543  0.24656400  0.54844524
   0.29094543  0.74656402  0.04844526
   0.79094540  0.75343598  0.54844524
   0.79094540  0.25343598  0.04844526
   0.31939860  0.16211805  0.50119814
   0.81939860  0.83788196  0.50119814
   0.31939860  0.66211804  0.00119814
   0.81939860  0.33788196  0.00119814
   0.59898658  0.54849081  0.05611875
   0.10467083  0.44290660  0.94577760
   0.09898658  0.45150916  0.05611875
   0.60467083  0.55709337  0.94577760
   0.59898658  0.04849082  0.55611874
   0.10467083  0.94290663  0.44577757
   0.09898658  0.95150919  0.55611874
   0.60467083  0.05709338  0.44577757
   0.32749370  0.32447669  0.40257014
   0.82539917  0.67727790  0.59692245
   0.82749370  0.67552331  0.40257014
   0.32539917  0.32272210  0.59692245
   0.32749370  0.82447669  0.90257017
   0.82539917  0.17727788  0.09692248
   0.82749370  0.17552330  0.90257017
   0.32539917  0.82272210  0.09692248
   0.52964864  0.47471359  0.13728993
   0.03002954  0.52556551  0.86251749
   0.02964863  0.52528638  0.13728993
   0.53002955  0.47443446  0.86251749
   0.52964864  0.97471362  0.63728993
   0.03002954  0.02556553  0.36251747
   0.02964863  0.02528639  0.63728993
   0.53002955  0.97443449  0.36251747
   0.29534797  0.18372314  0.30384417
   0.79326721  0.81360536  0.69544162
   0.79534800  0.81627685  0.30384417
   0.29326718  0.18639463  0.69544162
   0.29534797  0.68372315  0.80384417
   0.79326721  0.31360539  0.19544161
   0.79534800  0.31627688  0.80384417
   0.29326718  0.68639464  0.19544161
   0.49410448  0.49376466  0.25125611
   0.99398721  0.50556619  0.74868939
   0.99410454  0.50623531  0.25125611
   0.49398716  0.49443378  0.74868939
   0.49410448  0.99376469  0.75125611
   0.99398721  0.00556620  0.24868939
   0.99410454  0.00623532  0.75125611
   0.49398716  0.99443381  0.24868939
   0.01254056  0.96001197  0.03949985
   0.51317623  0.03900084  0.96222425
   0.51254056  0.03998805  0.03949985
   0.01317623  0.96099918  0.96222425
   0.01254056  0.46001194  0.53949985
   0.51317623  0.53900082  0.46222425
   0.51254056  0.53998803  0.53949985
   0.01317623  0.46099915  0.46222425
   0.10653085  0.05379321  0.15034194
   0.60691895  0.94600017  0.84906588
   0.60653082  0.94620679  0.15034194
   0.10691898  0.05399983  0.84906588
   0.10653085  0.55379321  0.65034194
   0.60691895  0.44600017  0.34906588
   0.60653082  0.44620679  0.65034194
   0.10691898  0.55399983  0.34906588
   0.28951242  0.24595640  0.44969804
   0.28951242  0.74595642  0.94969807
   0.78951239  0.75404358  0.44969804
   0.78951239  0.25404358  0.94969807
BiTiFeO                                 
           1
     5.510079    0.000000   -0.003754
     0.000000    5.497119    0.000000
    -0.027578    0.000000   40.735493
   Bi   Ti   O    Fe
  20  12  60   4
Direct configuration=     6
   0.24506022  0.23898231 -0.00365936
   0.74506021  0.76101767 -0.00365936
   0.24506022  0.73898233  0.49634064
   0.74506021  0.26101770  0.49634064
   0.25282425  0.24782470  0.10383418
   0.74941983  0.75180169  0.89688956
   0.75282419  0.75217532  0.10383418
   0.24941989  0.24819832  0.89688956
   0.25282425  0.74782468  0.60383413
   0.74941983  0.25180169  0.39688950
   0.75282419  0.25217532  0.60383413
   0.24941989  0.74819831  0.39688950
   0.22678150  0.27252608  0.21973477
   0.72334145  0.72557144  0.78132624
   0.72678150  0.72747395  0.21973477
   0.22334145  0.27442859  0.78132624
   0.22678150  0.77252605  0.71973480
   0.72334145  0.22557140  0.28132624
   0.72678150  0.22747391  0.71973480
   0.22334145  0.77442856  0.28132624
   0.29635757  0.25093516  0.34808587
   0.29635757  0.75093516  0.84808587
   0.79635760  0.74906484  0.34808587
   0.79635760  0.24906485  0.84808587
   0.29682463  0.25099910  0.65184166
   0.29682463  0.75099910  0.15184166
   0.79682466  0.74900090  0.65184166
   0.79682466  0.24900092  0.15184166
   0.29116598  0.24650217  0.54878154
   0.29116598  0.74650218  0.04878157
   0.79116595  0.75349782  0.54878154
   0.79116595  0.25349782  0.04878157
   0.31966456  0.16279081  0.50094618
   0.81966456  0.83720921  0.50094618
   0.31966456  0.66279079  0.00094618
   0.81966456  0.33720921  0.00094618
   0.59822997  0.54758267  0.05605396
   0.10528940  0.44235821  0.94596743
   0.09822997  0.45241730  0.05605396
   0.60528940  0.55764176  0.94596743
   0.59822997  0.04758269  0.55605394
   0.10528940  0.94235824  0.44596741
   0.09822997  0.95241733  0.55605394
   0.60528940  0.05764177  0.44596741
   0.32736053  0.32414823  0.40256696
   0.82501924  0.67764463  0.59676351
   0.82736053  0.67585177  0.40256696
   0.32501924  0.32235537  0.59676351
   0.32736053  0.82414823  0.90256699
   0.82501924  0.17764462  0.09676354
   0.82736053  0.17585175  0.90256699
   0.32501924  0.82235537  0.09676354
   0.52950725  0.47471498  0.13731534
   0.02980222  0.52567635  0.86262652
   0.02950724  0.52528499  0.13731534
   0.52980223  0.47432362  0.86262652
   0.52950725  0.97471501  0.63731534
   0.02980222  0.02567637  0.36262649
   0.02950724  0.02528501  0.63731534
   0.52980223  0.97432365  0.36262649
   0.29535712  0.18456015  0.30428669
   0.79296411  0.81403102  0.69590520
   0.79535715  0.81543984  0.30428669
   0.29296408  0.18596896  0.69590520
   0.29535712  0.68456016  0.80428669
   0.79296411  0.31403105  0.19590518
   0.79535715  0.31543987  0.80428669
   0.29296408  0.68596898  0.19590518
   0.49419012  0.49399882  0.25126082
   0.99401027  0.50565564  0.74867679
   0.99419018  0.50600115  0.25126082
   0.49401021  0.49434433  0.74867679
   0.49419012  0.99399885  0.75126082
   0.99401027  0.00565566  0.24867679
   0.99419018  0.00600117  0.75126082
   0.49401021  0.99434436  0.24867679
   0.01261794  0.96044048  0.03951007
   0.51404822  0.03833286  0.96202183
   0.51261794  0.03955953  0.03951007
   0.01404822  0.96166716  0.96202183
   0.01261794  0.46044045  0.53951007
   0.51404822  0.53833284  0.46202183
   0.51261794  0.53955952  0.53951007
   0.01404822  0.46166713  0.46202183
   0.10649387  0.05381700  0.15033261
   0.60702837  0.94575069  0.84915596
   0.60649385  0.94618300  0.15033261
   0.10702839  0.05424931  0.84915596
   0.10649387  0.55381700  0.65033261
   0.60702837  0.44575069  0.34915596
   0.60649385  0.44618300  0.65033261
   0.10702839  0.55424931  0.34915596
   0.28904131  0.24605217  0.44977563
   0.28904131  0.74605218  0.94977566
   0.78904128  0.75394782  0.44977563
   0.78904128  0.25394782  0.94977566
BiTiFeO                                 
           1
     5.509453    0.000000   -0.003322
     0.000000    5.496652    0.000000
    -0.024378    0.000000   40.738631
   Bi   Ti   O    Fe
  20  12  60   4
Direct configuration=     7
   0.24501564  0.23914720 -0.00375660
   0.74501562  0.76085279 -0.00375660
   0.24501564  0.73914721  0.49624340
   0.74501562  0.26085282  0.49624340
   0.25284584  0.24795962  0.10378252
   0.74915164  0.75195580  0.89687116
   0.75284578  0.75204039  0.10378252
   0.24915169  0.24804422  0.89687116
   0.25284584  0.74795961  0.60378248
   0.74915164  0.25195580  0.39687110
   0.75284578  0.25204039  0.60378248
   0.24915169  0.74804420  0.39687110
   0.22680155  0.27265148  0.21972904
   0.72337546  0.72568275  0.78127606
   0.72680155  0.72734855  0.21972904
   0.22337546  0.27431728  0.78127606
   0.22680155  0.77265145  0.71972907
   0.72337546  0.22568270  0.28127606
   0.72680155  0.22734850  0.71972907
   0.22337546  0.77431725  0.28127606
   0.29635011  0.25108662  0.34817996
   0.29635011  0.75108662  0.84817996
   0.79635014  0.74891338  0.34817996
   0.79635014  0.24891340  0.84817996
   0.29674378  0.25048718  0.65215591
   0.29674378  0.75048718  0.15215591
   0.79674381  0.74951282  0.65215591
   0.79674381  0.24951284  0.15215591
   0.29112071  0.24668036  0.54866499
   0.29112071  0.74668038  0.04866501
   0.79112068  0.75331962  0.54866499
   0.79112068  0.25331962  0.04866501
   0.31977225  0.16310550  0.50098055
   0.81977225  0.83689452  0.50098055
   0.31977225  0.66310548  0.00098055
   0.81977225  0.33689452  0.00098055
   0.59797037  0.54731970  0.05608549
   0.10557999  0.44212597  0.94605637
   0.09797037  0.45268027  0.05608549
   0.60557999  0.55787400  0.94605637
   0.59797037  0.04731971  0.55608547
   0.10557999  0.94212600  0.44605634
   0.09797037  0.95268030  0.55608547
   0.60557999  0.05787402  0.44605634
   0.32735403  0.32402501  0.40259216
   0.82491889  0.67767432  0.59680388
   0.82735403  0.67597499  0.40259216
   0.32491889  0.32232568  0.59680388
   0.32735403  0.82402501  0.90259219
   0.82491889  0.17767430  0.09680391
   0.82735403  0.17597497  0.90259219
   0.32491889  0.82232568  0.09680391
   0.52946714  0.47470186  0.13728219
   0.02973489  0.52571181  0.86263819
   0.02946713  0.52529811  0.13728219
   0.52973490  0.47428816  0.86263819
   0.52946714  0.97470189  0.63728219
   0.02973489  0.02571183  0.36263816
   0.02946713  0.02529813  0.63728219
   0.52973490  0.97428819  0.36263816
   0.29533333  0.18449727  0.30423423
   0.79294645  0.81354656  0.69563364
   0.79533336  0.81550272  0.30423423
   0.29294642  0.18645343  0.69563364
   0.29533333  0.68449728  0.80423423
   0.79294645  0.31354659  0.19563362
   0.79533336  0.31550275  0.80423423
   0.29294642  0.68645344  0.19563362
   0.49427993  0.49401829  0.25130478
   0.99404524  0.50561631  0.74872772
   0.99427999  0.50598168  0.25130478
   0.49404518  0.49438366  0.74872772
   0.49427993  0.99401832  0.75130478
   0.99404524  0.00561632  0.24872772
   0.99427999  0.00598169  0.75130478
   0.49404518  0.99438369  0.24872772
   0.01281314  0.96056340  0.03956803
   0.51424589  0.03816599  0.96199023
   0.51281314  0.03943662  0.03956803
   0.01424589  0.96183402  0.96199023
   0.01281314  0.46056337  0.53956803
   0.51424589  0.53816598  0.46199023
   0.51281314  0.53943660  0.53956803
   0.01424589  0.46183399  0.46199023
   0.10645962  0.05378882  0.15027968
   0.60708759  0.94567198  0.84916852
   0.60645960  0.94621118  0.15027968
   0.10708761  0.05432802  0.84916852
   0.10645962  0.55378882  0.65027968
   0.60708759  0.44567198  0.34916852
   0.60645960  0.44621118  0.65027968
   0.10708761  0.55432802  0.34916852
   0.28898645  0.24608973  0.44975128
   0.28898645  0.74608975  0.94975131
   0.78898642  0.75391025  0.44975128
   0.78898642  0.25391025  0.94975131
BiTiFeO                                 
           1
     5.509825    0.000000   -0.002320
     0.000000    5.497007    0.000000
    -0.016962    0.000000   40.753466
   Bi   Ti   O    Fe
  20  12  60   4
Direct configuration=     8
   0.24499152  0.23967335 -0.00389624
   0.74499150  0.76032663 -0.00389624
   0.24499152  0.73967337  0.49610376
   0.74499150  0.26032666  0.49610376
   0.25283874  0.24802537  0.10365946
   0.74861513  0.75224183  0.89688372
   0.75283868  0.75197465  0.10365946
   0.24861519  0.24775818  0.89688372
   0.25283874  0.74802535  0.60365941
   0.74861513  0.25224183  0.39688366
   0.75283868  0.25197465  0.60365941
   0.24861519  0.74775817  0.39688366
   0.22700642  0.27264782  0.21969698
   0.72357683  0.72591572  0.78125693
   0.72700642  0.72735221  0.21969698
   0.22357683  0.27408431  0.78125693
   0.22700642  0.77264779  0.71969701
   0.72357683  0.22591568  0.28125693
   0.72700642  0.22735216  0.71969701
   0.22357683  0.77408428  0.28125693
   0.29622136  0.25102054  0.34818759
   0.29622136  0.75102054  0.84818759
   0.79622139  0.74897946  0.34818759
   0.79622139  0.24897947  0.84818759
   0.29666450  0.25032720  0.65215298
   0.29666450  0.75032720  0.15215298
   0.79666453  0.74967280  0.65215298
   0.79666453  0.24967282  0.15215298
   0.29114281  0.24701052  0.54866518
   0.29114281  0.74701053  0.04866520
   0.79114278  0.75298947  0.54866518
   0.79114278  0.25298947  0.04866520
   0.32009359  0.16392990  0.50089374
   0.82009359  0.83607012  0.50089374
   0.32009359  0.66392988  0.00089374
   0.82009359  0.33607012  0.00089374
   0.59711543  0.54643785  0.05609491
   0.10641371  0.44149897  0.94626873
   0.09711543  0.45356212  0.05609491
   0.60641371  0.55850100  0.94626873
   0.59711543  0.04643787  0.55609489
   0.10641371  0.94149900  0.44626870
   0.09711543  0.95356215  0.55609489
   0.60641371  0.05850102  0.44626870
   0.32726340  0.32360757  0.40260179
   0.82460539  0.67785798  0.59680916
   0.82726340  0.67639243  0.40260179
   0.32460539  0.32214202  0.59680916
   0.32726340  0.82360757  0.90260182
   0.82460539  0.17785797  0.09680919
   0.82726340  0.17639242  0.90260182
   0.32460539  0.82214202  0.09680919
   0.52933958  0.47466112  0.13727486
   0.02950075  0.52583662  0.86268813
   0.02933957  0.52533885  0.13727486
   0.52950076  0.47416335  0.86268813
   0.52933958  0.97466115  0.63727486
   0.02950075  0.02583663  0.36268810
   0.02933957  0.02533887  0.63727486
   0.52950076  0.97416338  0.36268810
   0.29525931  0.18467955  0.30427555
   0.79275132  0.81328386  0.69563338
   0.79525934  0.81532044  0.30427555
   0.29275129  0.18671612  0.69563338
   0.29525931  0.68467956  0.80427555
   0.79275132  0.31328389  0.19563336
   0.79525934  0.31532047  0.80427555
   0.29275129  0.68671614  0.19563336