BiTiFeO                                 
           1
     5.485967    0.000851    0.000000
     0.000850    5.468484    0.000000
     0.000000    0.000000   40.597695
   Bi   Ti   O    Fe
  20  12  60   4
Direct configuration=     1
   0.24484409  0.23757862  0.00000000
   0.74484408  0.76242137  0.00000000
   0.24484409  0.73757863  0.50000000
   0.74484408  0.26242140  0.50000000
   0.25198972  0.24830766  0.10393570
   0.75198966  0.75169236  0.89606434
   0.75198966  0.75169236  0.10393570
   0.25198972  0.24830766  0.89606434
   0.25198972  0.74830764  0.60393566
   0.75198966  0.25169236  0.39606428
   0.75198966  0.25169236  0.60393566
   0.25198972  0.74830764  0.39606428
   0.22412699  0.27433315  0.21935007
   0.72412699  0.72566688  0.78064990
   0.72412699  0.72566688  0.21935007
   0.22412699  0.27433315  0.78064990
   0.22412699  0.77433312  0.71935010
   0.72412699  0.22566684  0.28064990
   0.72412699  0.22566684  0.71935010
   0.22412699  0.77433312  0.28064990
   0.29682383  0.25109082  0.34797305
   0.29682383  0.75109082  0.84797305
   0.79682386  0.74890918  0.34797305
   0.79682386  0.24890919  0.84797305
   0.29682383  0.25109082  0.65202695
   0.29682383  0.75109082  0.15202695
   0.79682386  0.74890918  0.65202695
   0.79682386  0.24890919  0.15202695
   0.79357010  0.75361604  0.45064172
   0.79357010  0.25361604  0.95064175
   0.79357010  0.75361604  0.54935825
   0.79357010  0.25361604  0.04935827
   0.31881350  0.15770908  0.50000000
   0.81881350  0.84229094  0.50000000
   0.31881350  0.65770906  0.00000000
   0.81881350  0.34229094  0.00000000
   0.60082728  0.55501008  0.05564614
   0.10082728  0.44498989  0.94435388
   0.10082728  0.44498989  0.05564614
   0.60082728  0.55501008  0.94435388
   0.60082728  0.05501010  0.55564612
   0.10082728  0.94498992  0.44435385
   0.10082728  0.94498992  0.55564612
   0.60082728  0.05501010  0.44435385
   0.32772058  0.32494432  0.40226784
   0.82772058  0.67505568  0.59773213
   0.82772058  0.67505568  0.40226784
   0.32772058  0.32494432  0.59773213
   0.32772058  0.82494432  0.90226787
   0.82772058  0.17505567  0.09773216
   0.82772058  0.17505567  0.90226787
   0.32772058  0.82494432  0.09773216
   0.53021055  0.47461614  0.13739407
   0.03021055  0.52538383  0.86260593
   0.03021055  0.52538383  0.13739407
   0.53021055  0.47461614  0.86260593
   0.53021055  0.97461617  0.63739407
   0.03021055  0.02538385  0.36260590
   0.03021055  0.02538385  0.63739407
   0.53021055  0.97461617  0.36260590
   0.29461476  0.18484382  0.30443299
   0.79461479  0.81515616  0.69556701
   0.79461479  0.81515616  0.30443299
   0.29461476  0.18484382  0.69556701
   0.29461476  0.68484384  0.80443299
   0.79461479  0.31515619  0.19556700
   0.79461479  0.31515619  0.80443299
   0.29461476  0.68484384  0.19556700
   0.49390233  0.49391797  0.25123006
   0.99390238  0.50608200  0.74876994
   0.99390238  0.50608200  0.25123006
   0.49390233  0.49391797  0.74876994
   0.49390233  0.99391800  0.75123006
   0.99390238  0.00608201  0.24876994
   0.99390238  0.00608201  0.75123006
   0.49390233  0.99391800  0.24876994
   0.00880992  0.95784479  0.03788698
   0.50880992  0.04215522  0.96211302
   0.50880992  0.04215522  0.03788698
   0.00880992  0.95784479  0.96211302
   0.00880992  0.45784476  0.53788698
   0.50880992  0.54215521  0.46211302
   0.50880992  0.54215521  0.53788698
   0.00880992  0.45784476  0.46211302
   0.10677507  0.05355787  0.15066576
   0.60677504  0.94644213  0.84933424
   0.60677504  0.94644213  0.15066576
   0.10677507  0.05355787  0.84933424
   0.10677507  0.55355787  0.65066576
   0.60677504  0.44644213  0.34933424
   0.60677504  0.44644213  0.65066576
   0.10677507  0.55355787  0.34933424
   0.29357013  0.24638395  0.45064172
   0.29357013  0.74638396  0.95064175
   0.29357013  0.24638395  0.54935825
   0.29357013  0.74638396  0.04935827
BiTiFeO                                 
           1
     5.511280    0.000557    0.000000
     0.000556    5.496009    0.000000
     0.000000    0.000000   40.780514
   Bi   Ti   O    Fe
  20  12  60   4
Direct configuration=     2
   0.24752317  0.23925901  0.00000000
   0.74293293  0.76254564  0.00000000
   0.24752317  0.73925902  0.50000000
   0.74293293  0.26254567  0.50000000
   0.25287398  0.24763001  0.10382512
   0.75000701  0.75123925  0.89616581
   0.75000701  0.75123925  0.10383424
   0.25287398  0.24763001  0.89617492
   0.25287398  0.74763000  0.60382508
   0.75000701  0.25123925  0.39616575
   0.75000701  0.25123925  0.60383419
   0.25287398  0.74763000  0.39617486
   0.22421656  0.27439706  0.21934761
   0.72412861  0.72571976  0.78065549
   0.72412861  0.72571976  0.21934448
   0.22421656  0.27439706  0.78065236
   0.22421656  0.77439703  0.71934764
   0.72412861  0.22571971  0.28065549
   0.72412861  0.22571971  0.71934451
   0.22421656  0.77439703  0.28065236
   0.29672688  0.25126238  0.34820456
   0.29672688  0.75126238  0.84820456
   0.79687045  0.74925975  0.34776520
   0.79687045  0.24925976  0.84776520
   0.29672688  0.25126238  0.65179544
   0.29672688  0.75126238  0.15179544
   0.79687045  0.74925975  0.65223480
   0.79687045  0.24925976  0.15223480
   0.79288193  0.75481979  0.45032863
   0.79288193  0.25481979  0.95032866
   0.79288193  0.75481979  0.54967134
   0.79288193  0.25481979  0.04967136
   0.32032172  0.15754576  0.50000000
   0.81856665  0.84002329  0.50000000
   0.32032172  0.65754574  0.00000000
   0.81856665  0.34002329  0.00000000
   0.60396448  0.54982564  0.05546491
   0.09865253  0.44395818  0.94460413
   0.09865253  0.44395818  0.05539589
   0.60396448  0.54982564  0.94453510
   0.60396448  0.04982565  0.55546490
   0.09865253  0.94395821  0.44460410
   0.09865253  0.94395821  0.55539587
   0.60396448  0.04982565  0.44453507
   0.32806902  0.32500254  0.40258618
   0.82597475  0.67632227  0.59698903
   0.82597475  0.67632227  0.40301094
   0.32806902  0.32500254  0.59741379
   0.32806902  0.82500254  0.90258621
   0.82597475  0.17632226  0.09698906
   0.82597475  0.17632226  0.90301097
   0.32806902  0.82500254  0.09741382
   0.53073761  0.47413476  0.13738661
   0.02964927  0.52489200  0.86255805
   0.02964927  0.52489200  0.13744195
   0.53073761  0.47413476  0.86261339
   0.53073761  0.97413479  0.63738661
   0.02964927  0.02489202  0.36255802
   0.02964927  0.02489202  0.63744195
   0.53073761  0.97413479  0.36261336
   0.29469721  0.18474435  0.30438010
   0.79459994  0.81503566  0.69553162
   0.79459994  0.81503566  0.30446838
   0.29469721  0.18474435  0.69561990
   0.29469721  0.68474436  0.80438010
   0.79459994  0.31503569  0.19553160
   0.79459994  0.31503569  0.80446838
   0.29469721  0.68474436  0.19561988
   0.49399405  0.49390929  0.25124384
   0.99393077  0.50603941  0.74875873
   0.99393077  0.50603941  0.25124127
   0.49399405  0.49390929  0.74875616
   0.49399405  0.99390932  0.75124384
   0.99393077  0.00603942  0.24875873
   0.99393077  0.00603942  0.75124127
   0.49399405  0.99390932  0.24875616
   0.00756791  0.96159323  0.03822441
   0.51339761  0.04395690  0.96176295
   0.51339761  0.04395690  0.03823705
   0.00756791  0.96159323  0.96177559
   0.00756791  0.46159320  0.53822441
   0.51339761  0.54395689  0.46176295
   0.51339761  0.54395689  0.53823705
   0.00756791  0.46159320  0.46177559
   0.10633851  0.05410445  0.15066430
   0.60730933  0.94667946  0.84931679
   0.60730933  0.94667946  0.15068321
   0.10633851  0.05410445  0.84933570
   0.10633851  0.55410445  0.65066430
   0.60730933  0.44667946  0.34931679
   0.60730933  0.44667946  0.65068321
   0.10633851  0.55410445  0.34933570
   0.29113928  0.24578696  0.45059368
   0.29113928  0.74578697  0.95059371
   0.29113928  0.24578696  0.54940629
   0.29113928  0.74578697  0.04940631
BiTiFeO                                 
           1
     5.514845    0.000464    0.000000
     0.000463    5.500672    0.000000
     0.000000    0.000000   40.734763
   Bi   Ti   O    Fe
  20  12  60   4
Direct configuration=     3
   0.24782699  0.23946237  0.00000000
   0.74307941  0.76275667  0.00000000
   0.24782699  0.73946238  0.50000000
   0.74307941  0.26275670  0.50000000
   0.25331707  0.24764334  0.10366256
   0.75023732  0.75114703  0.89633239
   0.75023732  0.75114703  0.10366766
   0.25331707  0.24764334  0.89633749
   0.25331707  0.74764332  0.60366251
   0.75023732  0.25114703  0.39633233
   0.75023732  0.25114703  0.60366761
   0.25331707  0.74764332  0.39633743
   0.22470911  0.27406113  0.21921039
   0.72442373  0.72623929  0.78080022
   0.72442373  0.72623929  0.21919975
   0.22470911  0.27406113  0.78078958
   0.22470911  0.77406110  0.71921042
   0.72442373  0.22623924  0.28080022
   0.72442373  0.22623924  0.71919978
   0.22470911  0.77406110  0.28078958
   0.29648243  0.25109350  0.34821498
   0.29648243  0.75109350  0.84821498
   0.79701313  0.74922382  0.34792242
   0.79701313  0.24922383  0.84792242
   0.29648243  0.25109350  0.65178502
   0.29648243  0.75109350  0.15178502
   0.79701313  0.74922382  0.65207758
   0.79701313  0.24922383  0.15207758
   0.79321143  0.75413816  0.45048508
   0.79321143  0.25413816  0.95048511
   0.79321143  0.75413816  0.54951489
   0.79321143  0.25413816  0.04951491
   0.32062427  0.15813478  0.50000000
   0.81861082  0.83964712  0.50000000
   0.32062427  0.65813477  0.00000000
   0.81861082  0.33964712  0.00000000
   0.60299176  0.55037740  0.05545910
   0.09957670  0.44477265  0.94465337
   0.09957670  0.44477265  0.05534665
   0.60299176  0.55037740  0.94454091
   0.60299176  0.05037742  0.55545909
   0.09957670  0.94477268  0.44465334
   0.09957670  0.94477268  0.55534663
   0.60299176  0.05037742  0.44454088
   0.32798901  0.32462056  0.40262045
   0.82533190  0.67647641  0.59707417
   0.82533190  0.67647641  0.40292580
   0.32798901  0.32462056  0.59737952
   0.32798901  0.82462056  0.90262048
   0.82533190  0.17647639  0.09707420
   0.82533190  0.17647639  0.90292583
   0.32798901  0.82462056  0.09737955
   0.53050877  0.47411696  0.13739583
   0.02953472  0.52494969  0.86253488
   0.02953472  0.52494969  0.13746512
   0.53050877  0.47411696  0.86260417
   0.53050877  0.97411699  0.63739583
   0.02953472  0.02494971  0.36253485
   0.02953472  0.02494971  0.63746512
   0.53050877  0.97411699  0.36260414
   0.29459249  0.18485275  0.30432175
   0.79436695  0.81512033  0.69579040
   0.79436695  0.81512033  0.30420960
   0.29459249  0.18485275  0.69567825
   0.29459249  0.68485277  0.80432175
   0.79436695  0.31512036  0.19579038
   0.79436695  0.31512036  0.80420960
   0.29459249  0.68485277  0.19567824
   0.49391174  0.49391451  0.25127190
   0.99374827  0.50597422  0.74873230
   0.99374827  0.50597422  0.25126770
   0.49391174  0.49391451  0.74872810
   0.49391174  0.99391454  0.75127190
   0.99374827  0.00597424  0.24873230
   0.99374827  0.00597424  0.75126770
   0.49391174  0.99391454  0.24872810
   0.00841391  0.96147947  0.03833579
   0.51327668  0.04317678  0.96164157
   0.51327668  0.04317678  0.03835843
   0.00841391  0.96147947  0.96166421
   0.00841391  0.46147944  0.53833579
   0.51327668  0.54317677  0.46164157
   0.51327668  0.54317677  0.53835843
   0.00841391  0.46147944  0.46166421
   0.10634897  0.05416412  0.15067706
   0.60717381  0.94651624  0.84928187
   0.60717381  0.94651624  0.15071813
   0.10634897  0.05416412  0.84932294
   0.10634897  0.55416412  0.65067706
   0.60717381  0.44651624  0.34928187
   0.60717381  0.44651624  0.65071813
   0.10634897  0.55416412  0.34932294
   0.29016930  0.24594111  0.45064489
   0.29016930  0.74594113  0.95064492
   0.29016930  0.24594111  0.54935508
   0.29016930  0.74594113  0.04935510
BiTiFeO                                 
           1
     5.501588    0.000612    0.000000
     0.000611    5.487605    0.000000
     0.000000    0.000000   40.704491
   Bi   Ti   O    Fe
  20  12  60   4
Direct configuration=     4
   0.24866891  0.24015186  0.00000000
   0.74269534  0.76292315  0.00000000
   0.24866891  0.74015188  0.50000000
   0.74269534  0.26292318  0.50000000
   0.25365946  0.24750334  0.10352976
   0.74973325  0.75097914  0.89648529
   0.74973325  0.75097914  0.10351476
   0.25365946  0.24750334  0.89647029
   0.25365946  0.74750333  0.60352971
   0.74973325  0.25097914  0.39648523
   0.74973325  0.25097914  0.60351471
   0.25365946  0.74750333  0.39647023
   0.22503914  0.27385197  0.21921223
   0.72469062  0.72663964  0.78081216
   0.72469062  0.72663964  0.21918781
   0.22503914  0.27385197  0.78078774
   0.22503914  0.77385194  0.71921226
   0.72469062  0.22663959  0.28081216
   0.72469062  0.22663959  0.71918784
   0.22503914  0.77385194  0.28078774
   0.29618624  0.25080037  0.34802010
   0.29618624  0.75080037  0.84802010
   0.79717563  0.74947154  0.34771393
   0.79717563  0.24947156  0.84771393
   0.29618624  0.25080037  0.65197990
   0.29618624  0.75080037  0.15197990
   0.79717563  0.74947154  0.65228607
   0.79717563  0.24947156  0.15228607
   0.79357110  0.75378225  0.45059572
   0.79357110  0.25378225  0.95059575
   0.79357110  0.75378225  0.54940425
   0.79357110  0.25378225  0.04940427
   0.32153718  0.15899971  0.50000000
   0.81892323  0.83891321  0.50000000
   0.32153718  0.65899969  0.00000000
   0.81892323  0.33891321  0.00000000
   0.60214044  0.55021968  0.05538650
   0.10039106  0.44559015  0.94479347
   0.10039106  0.44559015  0.05520654
   0.60214044  0.55021968  0.94461352
   0.60214044  0.05021970  0.55538648
   0.10039106  0.94559018  0.44479344
   0.10039106  0.94559018  0.55520653
   0.60214044  0.05021970  0.44461349
   0.32803482  0.32420284  0.40274278
   0.82429659  0.67687181  0.59703259
   0.82429659  0.67687181  0.40296738
   0.32803482  0.32420284  0.59725719
   0.32803482  0.82420284  0.90274281
   0.82429659  0.17687180  0.09703262
   0.82429659  0.17687180  0.90296741
   0.32803482  0.82420284  0.09725722
   0.53020346  0.47402297  0.13733600
   0.02935550  0.52496706  0.86256734
   0.02935550  0.52496706  0.13743266
   0.53020346  0.47402297  0.86266400
   0.53020346  0.97402300  0.63733600
   0.02935550  0.02496707  0.36256731
   0.02935550  0.02496707  0.63743266
   0.53020346  0.97402300  0.36266398
   0.29451900  0.18533181  0.30451711
   0.79412379  0.81466606  0.69571914
   0.79412379  0.81466606  0.30428086
   0.29451900  0.18533181  0.69548289
   0.29451900  0.68533183  0.80451711
   0.79412379  0.31466609  0.19571912
   0.79412379  0.31466609  0.80428086
   0.29451900  0.68533183  0.19548287
   0.49394307  0.49399834  0.25127831
   0.99382360  0.50590492  0.74872188
   0.99382360  0.50590492  0.25127812
   0.49394307  0.49399834  0.74872169
   0.49394307  0.99399837  0.75127831
   0.99382360  0.00590494  0.24872188
   0.99382360  0.00590494  0.75127812
   0.49394307  0.99399837  0.24872169
   0.00956242  0.96184148  0.03850131
   0.51369549  0.04221176  0.96146902
   0.51369549  0.04221176  0.03853098
   0.00956242  0.96184148  0.96149869
   0.00956242  0.46184145  0.53850131
   0.51369549  0.54221175  0.46146902
   0.51369549  0.54221175  0.53853098
   0.00956242  0.46184145  0.46149869
   0.10643550  0.05428112  0.15059349
   0.60709488  0.94635184  0.84932418
   0.60709488  0.94635184  0.15067582
   0.10643550  0.05428112  0.84940651
   0.10643550  0.55428112  0.65059349
   0.60709488  0.44635184  0.34932418
   0.60709488  0.44635184  0.65067582
   0.10643550  0.55428112  0.34940651
   0.28881254  0.24601586  0.45067752
   0.28881254  0.74601587  0.95067755
   0.28881254  0.24601586  0.54932245
   0.28881254  0.74601587  0.04932247
BiTiFeO                                 
           1
     5.509765    0.000427    0.000000
     0.000426    5.496569    0.000000
     0.000000    0.000000   40.714030
   Bi   Ti   O    Fe
  20  12  60   4
Direct configuration=     5
   0.24965656  0.24085536  0.00000000
   0.74188956  0.76284653  0.00000000
   0.24965656  0.74085537  0.50000000
   0.74188956  0.26284656  0.50000000
   0.25369242  0.24722015  0.10348030
   0.74883697  0.75097691  0.89656827
   0.74883697  0.75097691  0.10343178
   0.25369242  0.24722015  0.89651975
   0.25369242  0.74722013  0.60348025
   0.74883697  0.25097691  0.39656821
   0.74883697  0.25097691  0.60343173
   0.25369242  0.74722013  0.39651969
   0.22512569  0.27375653  0.21924996
   0.72484940  0.72679918  0.78078244
   0.72484940  0.72679918  0.21921753
   0.22512569  0.27375653  0.78075001
   0.22512569  0.77375650  0.71924999
   0.72484940  0.22679913  0.28078244
   0.72484940  0.22679913  0.71921756
   0.22512569  0.77375650  0.28075001
   0.29613734  0.25125727  0.34839581
   0.29613734  0.75125727  0.84839581
   0.79715432  0.74906303  0.34795288
   0.79715432  0.24906304  0.84795288
   0.29613734  0.25125727  0.65160419
   0.29613734  0.75125727  0.15160419
   0.79715432  0.74906303  0.65204712
   0.79715432  0.24906304  0.15204712
   0.79347248  0.75408169  0.45052658
   0.79347248  0.25408169  0.95052661
   0.79347248  0.75408169  0.54947339
   0.79347248  0.25408169  0.04947342
   0.32240371  0.15953694  0.50000000
   0.81927817  0.83832512  0.50000000
   0.32240371  0.65953692  0.00000000
   0.81927817  0.33832512  0.00000000
   0.60222891  0.54932407  0.05527935
   0.10020185  0.44548200  0.94492929
   0.10020185  0.44548200  0.05507073
   0.60222891  0.54932407  0.94472066
   0.60222891  0.04932409  0.55527934
   0.10020185  0.94548203  0.44492926
   0.10020185  0.94548203  0.55507071
   0.60222891  0.04932409  0.44472063
   0.32813271  0.32411426  0.40280267
   0.82369936  0.67727269  0.59693118
   0.82369936  0.67727269  0.40306879
   0.32813271  0.32411426  0.59719730
   0.32813271  0.82411426  0.90280270
   0.82369936  0.17727268  0.09693121
   0.82369936  0.17727268  0.90306882
   0.32813271  0.82411426  0.09719733
   0.53008533  0.47385071  0.13731790
   0.02922070  0.52489848  0.86256758
   0.02922070  0.52489848  0.13743242
   0.53008533  0.47385071  0.86268210
   0.53008533  0.97385074  0.63731790
   0.02922070  0.02489850  0.36256755
   0.02922070  0.02489850  0.63743242
   0.53008533  0.97385074  0.36268207
   0.29444343  0.18502669  0.30425855
   0.79395138  0.81480017  0.69593672
   0.79395138  0.81480017  0.30406328
   0.29444343  0.18502669  0.69574145
   0.29444343  0.68502670  0.80425855
   0.79395138  0.31480020  0.19593671
   0.79395138  0.31480020  0.80406328
   0.29444343  0.68502670  0.19574144
   0.49402128  0.49414108  0.25127383
   0.99404311  0.50587680  0.74871924
   0.99404311  0.50587680  0.25128076
   0.49402128  0.49414108  0.74872617
   0.49402128  0.99414111  0.75127383
   0.99404311  0.00587681  0.24871924
   0.99404311  0.00587681  0.75128076
   0.49402128  0.99414111  0.24872617
   0.01000847  0.96255800  0.03857889
   0.51447937  0.04185449  0.96140245
   0.51447937  0.04185449  0.03859755
   0.01000847  0.96255800  0.96142111
   0.01000847  0.46255797  0.53857889
   0.51447937  0.54185448  0.46140245
   0.51447937  0.54185448  0.53859755
   0.01000847  0.46255797  0.46142111
   0.10645697  0.05437908  0.15055828
   0.60711374  0.94639997  0.84932642
   0.60711374  0.94639997  0.15067358
   0.10645697  0.05437908  0.84944172
   0.10645697  0.55437908  0.65055828
   0.60711374  0.44639997  0.34932642
   0.60711374  0.44639997  0.65067358
   0.10645697  0.55437908  0.34944172
   0.28843070  0.24608473  0.45066184
   0.28843070  0.74608474  0.95066187
   0.28843070  0.24608473  0.54933813
   0.28843070  0.74608474  0.04933815
BiTiFeO                                 
           1
     5.507357    0.000289    0.000000
     0.000288    5.494195    0.000000
     0.000000    0.000000   40.691397
   Bi   Ti   O    Fe
  20  12  60   4
Direct configuration=     6
   0.25019142  0.24125871  0.00000000
   0.74163874  0.76286623  0.00000000
   0.25019142  0.74125872  0.50000000
   0.74163874  0.26286626  0.50000000
   0.25387832  0.24725195  0.10342324
   0.74863028  0.75085355  0.89664803
   0.74863028  0.75085355  0.10335202
   0.25387832  0.24725195  0.89657680
   0.25387832  0.74725193  0.60342320
   0.74863028  0.25085355  0.39664797
   0.74863028  0.25085355  0.60335197
   0.25387832  0.74725193  0.39657674
   0.22542109  0.27364415  0.21922195
   0.72504330  0.72703408  0.78081387
   0.72504330  0.72703408  0.21918610
   0.22542109  0.27364415  0.78077802
   0.22542109  0.77364412  0.71922198
   0.72504330  0.22703403  0.28081387
   0.72504330  0.22703403  0.71918613
   0.22542109  0.77364412  0.28077802
   0.29597090  0.25085456  0.34821028
   0.29597090  0.75085456  0.84821028
   0.79711670  0.74933880  0.34779202
   0.79711670  0.24933882  0.84779202
   0.29597090  0.25085456  0.65178972
   0.29597090  0.75085456  0.15178972
   0.79711670  0.74933880  0.65220798
   0.79711670  0.24933882  0.15220798
   0.79363648  0.75393238  0.45056621
   0.79363648  0.25393238  0.95056624
   0.79363648  0.75393238  0.54943376
   0.79363648  0.25393238  0.04943378
   0.32294547  0.16007293  0.50000000
   0.81947169  0.83790158  0.50000000
   0.32294547  0.66007292  0.00000000
   0.81947169  0.33790158  0.00000000
   0.60182536  0.54917420  0.05521022
   0.10037749  0.44564119  0.94502152
   0.10037749  0.44564119  0.05497850
   0.60182536  0.54917420  0.94478979
   0.60182536  0.04917422  0.55521021
   0.10037749  0.94564122  0.44502149
   0.10037749  0.94564122  0.55497848
   0.60182536  0.04917422  0.44478976
   0.32808512  0.32388255  0.40282871
   0.82316869  0.67757574  0.59692652
   0.82316869  0.67757574  0.40307345
   0.32808512  0.32388255  0.59717126
   0.32808512  0.82388255  0.90282874
   0.82316869  0.17757572  0.09692655
   0.82316869  0.17757572  0.90307348
   0.32808512  0.82388255  0.09717129
   0.52985132  0.47374332  0.13725919
   0.02904206  0.52491323  0.86261625
   0.02904206  0.52491323  0.13738375
   0.52985132  0.47374332  0.86274081
   0.52985132  0.97374335  0.63725919
   0.02904206  0.02491324  0.36261622
   0.02904206  0.02491324  0.63738375
   0.52985132  0.97374335  0.36274078
   0.29435752  0.18543113  0.30441352
   0.79376206  0.81438271  0.69584695
   0.79376206  0.81438271  0.30415305
   0.29435752  0.18543113  0.69558648
   0.29435752  0.68543114  0.80441352
   0.79376206  0.31438274  0.19584694
   0.79376206  0.31438274  0.80415305
   0.29435752  0.68543114  0.19558646
   0.49408831  0.49424616  0.25128046
   0.99409418  0.50582644  0.74871128
   0.99409418  0.50582644  0.25128872
   0.49408831  0.49424616  0.74871954
   0.49408831  0.99424619  0.75128046
   0.99409418  0.00582645  0.24871128
   0.99409418  0.00582645  0.75128872
   0.49408831  0.99424619  0.24871954
   0.01053416  0.96285647  0.03864473
   0.51478045  0.04131478  0.96134436
   0.51478045  0.04131478  0.03865564
   0.01053416  0.96285647  0.96135527
   0.01053416  0.46285644  0.53864473
   0.51478045  0.54131476  0.46134436
   0.51478045  0.54131476  0.53865564
   0.01053416  0.46285644  0.46135527
   0.10651557  0.05451655  0.15048400
   0.60707881  0.94627307  0.84937522
   0.60707881  0.94627307  0.15062478
   0.10651557  0.05451655  0.84951600
   0.10651557  0.55451655  0.65048400
   0.60707881  0.44627307  0.34937522
   0.60707881  0.44627307  0.65062478
   0.10651557  0.55451655  0.34951600
   0.28801811  0.24626319  0.45068512
   0.28801811  0.74626321  0.95068515
   0.28801811  0.24626319  0.54931485
   0.28801811  0.74626321  0.04931487
BiTiFeO                                 
           1
     5.508841    0.000270    0.000000
     0.000269    5.495746    0.000000
     0.000000    0.000000   40.705882
   Bi   Ti   O    Fe
  20  12  60   4
Direct configuration=     7
   0.25062768  0.24173481 -0.00000000
   0.74136678  0.76283005 -0.00000000
   0.25062768  0.74173483  0.50000000
   0.74136678  0.26283008  0.50000000
   0.25382446  0.24717292  0.10336941
   0.74816918  0.75086660  0.89672997
   0.74816918  0.75086660  0.10327008
   0.25382446  0.24717292  0.89663063
   0.25382446  0.74717291  0.60336937
   0.74816918  0.25086660  0.39672991
   0.74816918  0.25086660  0.60327003
   0.25382446  0.74717291  0.39663057
   0.22563637  0.27361260  0.21923474
   0.72522039  0.72718746  0.78080413
   0.72522039  0.72718746  0.21919584
   0.22563637  0.27361260  0.78076523
   0.22563637  0.77361257  0.71923477
   0.72522039  0.22718742  0.28080413
   0.72522039  0.22718742  0.71919587
   0.22563637  0.77361257  0.28076523
   0.29579331  0.25078326  0.34821819
   0.29579331  0.75078326  0.84821819
   0.79708810  0.74930139  0.34780538
   0.79708810  0.24930140  0.84780538
   0.29579331  0.25078326  0.65178181
   0.29579331  0.75078326  0.15178181
   0.79708810  0.74930139  0.65219462
   0.79708810  0.24930140  0.15219462
   0.79385372  0.75376240  0.45060918
   0.79385372  0.25376240  0.95060921
   0.79385372  0.75376240  0.54939079
   0.79385372  0.25376240  0.04939082
   0.32358675  0.16062105  0.50000000
   0.81974271  0.83747731  0.50000000
   0.32358675  0.66062104 -0.00000000
   0.81974271  0.33747731 -0.00000000
   0.60149822  0.54893356  0.05513089
   0.10051515  0.44575549  0.94512176
   0.10051515  0.44575549  0.05487825
   0.60149822  0.54893356  0.94486913
   0.60149822  0.04893357  0.55513087
   0.10051515  0.94575552  0.44512173
   0.10051515  0.94575552  0.55487824
   0.60149822  0.04893357  0.44486910
   0.32810312  0.32368870  0.40284633
   0.82267257  0.67786196  0.59692027
   0.82267257  0.67786196  0.40307970
   0.32810312  0.32368870  0.59715364
   0.32810312  0.82368870  0.90284636
   0.82267257  0.17786194  0.09692030
   0.82267257  0.17786194  0.90307973
   0.32810312  0.82368870  0.09715367
   0.52963156  0.47362197  0.13721528
   0.02886798  0.52493853  0.86265274
   0.02886798  0.52493853  0.13734726
   0.52963156  0.47362197  0.86278472
   0.52963156  0.97362200  0.63721528
   0.02886798  0.02493854  0.36265271
   0.02886798  0.02493854  0.63734726
   0.52963156  0.97362200  0.36278469
   0.29426972  0.18561877  0.30445129
   0.79356065  0.81413922  0.69584900
   0.79356065  0.81413922  0.30415100
   0.29426972  0.18561877  0.69554871
   0.29426972  0.68561878  0.80445129
   0.79356065  0.31413925  0.19584899
   0.79356065  0.31413925  0.80415100
   0.29426972  0.68561878  0.19554869
   0.49422553  0.49439138  0.25128156
   0.99424608  0.50577423  0.74871037
   0.99424608  0.50577423  0.25128963
   0.49422553  0.49439138  0.74871844
   0.49422553  0.99439141  0.75128156
   0.99424608  0.00577424  0.24871037
   0.99424608  0.00577424  0.75128963
   0.49422553  0.99439141  0.24871844
   0.01106642  0.96321463  0.03869989
   0.51522371  0.04078590  0.96130583
   0.51522371  0.04078590  0.03869417
   0.01106642  0.96321463  0.96130011
   0.01106642  0.46321460  0.53869989
   0.51522371  0.54078588  0.46130583
   0.51522371  0.54078588  0.53869417
   0.01106642  0.46321460  0.46130011
   0.10656686  0.05459045  0.15041571
   0.60704096  0.94618735  0.84941608
   0.60704096  0.94618735  0.15058392
   0.10656686  0.05459045  0.84958429
   0.10656686  0.55459045  0.65041571
   0.60704096  0.44618735  0.34941608
   0.60704096  0.44618735  0.65058392
   0.10656686  0.55459045  0.34958429
   0.28766390  0.24647956  0.45070788
   0.28766390  0.74647958  0.95070791
   0.28766390  0.24647956  0.54929209
   0.28766390  0.74647958  0.04929211
BiTiFeO                                 
           1
     5.508659    0.000209    0.000000
     0.000209    5.495492    0.000000
     0.000000    0.000000   40.701385
   Bi   Ti   O    Fe
  20  12  60   4
Direct configuration=     8
   0.25081975  0.24192604 -0.00000000
   0.74127073  0.76278498 -0.00000000
   0.25081975  0.74192605  0.50000000
   0.74127073  0.26278501  0.50000000
   0.25383319  0.24716029  0.10334899
   0.74802552  0.75086011  0.89676197
   0.74802552  0.75086011  0.10323808
   0.25383319  0.24716029  0.89665105
   0.25383319  0.74716028  0.60334895
   0.74802552  0.25086011  0.39676191
   0.74802552  0.25086011  0.60323803
   0.25383319  0.74716028  0.39665099
   0.22573938  0.27358033  0.21922301
   0.72532871  0.72725569  0.78081668
   0.72532871  0.72725569  0.21918329
   0.22573938  0.27358033  0.78077696
   0.22573938  0.77358030  0.71922304
   0.72532871  0.22725564  0.28081668
   0.72532871  0.22725564  0.71918332
   0.22573938  0.77358030  0.28077696
   0.29573969  0.25077565  0.34825513
   0.29573969  0.75077565  0.84825513
   0.79705050  0.74928187  0.34782854
   0.79705050  0.24928188  0.84782854
   0.29573969  0.25077565  0.65174487
   0.29573969  0.75077565  0.15174487
   0.79705050  0.74928187  0.65217146
   0.79705050  0.24928188  0.15217146
   0.79388378  0.75375072  0.45061076
   0.79388378  0.25375072  0.95061079
   0.79388378  0.75375072  0.54938921
   0.79388378  0.25375072  0.04938923
   0.32376331  0.16079838  0.50000000
   0.81982488  0.83732785  0.50000000
   0.32376331  0.66079836 -0.00000000
   0.81982488  0.33732785 -0.00000000
   0.60142873  0.54881832  0.05509883
   0.10052737  0.44577339  0.94515891
   0.10052737  0.44577339  0.05484111
   0.60142873  0.54881832  0.94490118
   0.60142873  0.04881834  0.55509882
   0.10052737  0.94577342  0.44515888
   0.10052737  0.94577342  0.55484109
   0.60142873  0.04881834  0.44490115
   0.32808918  0.32362022  0.40285174
   0.82251924  0.67797228  0.59691385
   0.82251924  0.67797228  0.40308612
   0.32808918  0.32362022  0.59714823
   0.32808918  0.82362022  0.90285177
   0.82251924  0.17797226  0.09691388
   0.82251924  0.17797226  0.90308615
   0.32808918  0.82362022  0.09714826
   0.52954866  0.47356920  0.13720218
   0.02878954  0.52494607  0.86266480
   0.02878954  0.52494607  0.13733520
   0.52954866  0.47356920  0.86279782
   0.52954866  0.97356923  0.63720218
   0.02878954  0.02494609  0.36266477
   0.02878954  0.02494609  0.63733520
   0.52954866  0.97356923  0.36279779
   0.29422214  0.18564515  0.30442792
   0.79348548  0.81406999  0.69586519
   0.79348548  0.81406999  0.30413481
   0.29422214  0.18564515  0.69557208
   0.29422214  0.68564517  0.80442792
   0.79348548  0.31407002  0.19586518
   0.79348548  0.31407002  0.80413481
   0.29422214  0.68564517  0.19557207