BiTiFeO                                 
           1
     5.475954    0.003178   -0.004416
     0.003174    5.462909   -0.002503
    -0.032898   -0.018309   40.358341
   Bi   Ti   O    Fe
  20  12  60   4
Direct configuration=     1
   0.24484409  0.23757862  0.00000000
   0.74484408  0.76242137  0.00000000
   0.24484409  0.73757863  0.50000000
   0.74484408  0.26242140  0.50000000
   0.25198972  0.24830766  0.10393570
   0.75198966  0.75169236  0.89606434
   0.75198966  0.75169236  0.10393570
   0.25198972  0.24830766  0.89606434
   0.25198972  0.74830764  0.60393566
   0.75198966  0.25169236  0.39606428
   0.75198966  0.25169236  0.60393566
   0.25198972  0.74830764  0.39606428
   0.22412699  0.27433315  0.21935007
   0.72412699  0.72566688  0.78064990
   0.72412699  0.72566688  0.21935007
   0.22412699  0.27433315  0.78064990
   0.22412699  0.77433312  0.71935010
   0.72412699  0.22566684  0.28064990
   0.72412699  0.22566684  0.71935010
   0.22412699  0.77433312  0.28064990
   0.79682386  0.74890918  0.34797305
   0.79682386  0.24890919  0.84797305
   0.29682383  0.25109082  0.65202695
   0.29682383  0.75109082  0.15202695
   0.79682386  0.74890918  0.65202695
   0.79682386  0.24890919  0.15202695
   0.29357013  0.24638395  0.45064172
   0.29357013  0.74638396  0.95064175
   0.79357010  0.75361604  0.45064172
   0.79357010  0.25361604  0.95064175
   0.79357010  0.75361604  0.54935825
   0.79357010  0.25361604  0.04935827
   0.31881350  0.15770908  0.50000000
   0.81881350  0.84229094  0.50000000
   0.31881350  0.65770906  0.00000000
   0.81881350  0.34229094  0.00000000
   0.60082728  0.55501008  0.05564614
   0.10082728  0.44498989  0.94435388
   0.10082728  0.44498989  0.05564614
   0.60082728  0.55501008  0.94435388
   0.60082728  0.05501010  0.55564612
   0.10082728  0.94498992  0.44435385
   0.10082728  0.94498992  0.55564612
   0.60082728  0.05501010  0.44435385
   0.32772058  0.32494432  0.40226784
   0.82772058  0.67505568  0.59773213
   0.82772058  0.67505568  0.40226784
   0.32772058  0.32494432  0.59773213
   0.32772058  0.82494432  0.90226787
   0.82772058  0.17505567  0.09773216
   0.82772058  0.17505567  0.90226787
   0.32772058  0.82494432  0.09773216
   0.53021055  0.47461614  0.13739407
   0.03021055  0.52538383  0.86260593
   0.03021055  0.52538383  0.13739407
   0.53021055  0.47461614  0.86260593
   0.53021055  0.97461617  0.63739407
   0.03021055  0.02538385  0.36260590
   0.03021055  0.02538385  0.63739407
   0.53021055  0.97461617  0.36260590
   0.29461476  0.18484382  0.30443299
   0.79461479  0.81515616  0.69556701
   0.79461479  0.81515616  0.30443299
   0.29461476  0.18484382  0.69556701
   0.29461476  0.68484384  0.80443299
   0.79461479  0.31515619  0.19556700
   0.79461479  0.31515619  0.80443299
   0.29461476  0.68484384  0.19556700
   0.49390233  0.49391797  0.25123006
   0.99390238  0.50608200  0.74876994
   0.99390238  0.50608200  0.25123006
   0.49390233  0.49391797  0.74876994
   0.49390233  0.99391800  0.75123006
   0.99390238  0.00608201  0.24876994
   0.99390238  0.00608201  0.75123006
   0.49390233  0.99391800  0.24876994
   0.00880992  0.95784479  0.03788698
   0.50880992  0.04215522  0.96211302
   0.50880992  0.04215522  0.03788698
   0.00880992  0.95784479  0.96211302
   0.00880992  0.45784476  0.53788698
   0.50880992  0.54215521  0.46211302
   0.50880992  0.54215521  0.53788698
   0.00880992  0.45784476  0.46211302
   0.10677507  0.05355787  0.15066576
   0.60677504  0.94644213  0.84933424
   0.60677504  0.94644213  0.15066576
   0.10677507  0.05355787  0.84933424
   0.10677507  0.55355787  0.65066576
   0.60677504  0.44644213  0.34933424
   0.60677504  0.44644213  0.65066576
   0.10677507  0.55355787  0.34933424
   0.29682383  0.25109082  0.34797305
   0.29682383  0.75109082  0.84797305
   0.29357013  0.24638395  0.54935825
   0.29357013  0.74638396  0.04935827
BiTiFeO                                 
           1
     5.513526    0.004156    0.000297
     0.004145    5.504121   -0.002746
     0.001845   -0.020072   40.747479
   Bi   Ti   O    Fe
  20  12  60   4
Direct configuration=     2
   0.24724132  0.23893100  0.00175131
   0.74412735  0.76222934  0.00169594
   0.24724132  0.73893102  0.50175131
   0.74412735  0.26222937  0.50169594
   0.25327992  0.24672574  0.10396936
   0.75265932  0.74999983  0.89346588
   0.74943133  0.75153199  0.10404400
   0.25378518  0.24957334  0.89344192
   0.25327992  0.74672572  0.60396932
   0.75265932  0.24999983  0.39346582
   0.74943133  0.25153199  0.60404396
   0.25378518  0.74957333  0.39344186
   0.22436203  0.27405204  0.21954857
   0.72225947  0.72542312  0.78123031
   0.72422857  0.72594025  0.21955178
   0.22451116  0.27648782  0.78120797
   0.22436203  0.77405201  0.71954860
   0.72225947  0.22542307  0.28123031
   0.72422857  0.22594020  0.71955181
   0.22451116  0.77648779  0.28120797
   0.79817795  0.74777466  0.34737955
   0.79817795  0.24777467  0.84737955
   0.29627410  0.25099391  0.65176664
   0.29627410  0.75099391  0.15176664
   0.79715032  0.74976795  0.65234473
   0.79715032  0.24976796  0.15234473
   0.29184674  0.24514790  0.45026660
   0.29184674  0.74514791  0.95026663
   0.79217035  0.75418339  0.44980112
   0.79217035  0.25418339  0.94980115
   0.79478832  0.75539200  0.55052836
   0.79478832  0.25539200  0.05052838
   0.31943856  0.15908511  0.49873223
   0.81883479  0.83995899  0.49921897
   0.31943856  0.65908510 -0.00126777
   0.81883479  0.33995899 -0.00078103
   0.60227537  0.55207250  0.05517856
   0.09878574  0.44893931  0.94500082
   0.09519212  0.43947611  0.05489688
   0.60060944  0.54958205  0.94497775
   0.60227537  0.05207251  0.55517855
   0.09878574  0.94893934  0.44500079
   0.09519212  0.93947614  0.55489687
   0.60060944  0.04958207  0.44497772
   0.32579428  0.32232717  0.40423113
   0.82561718  0.67669647  0.59667213
   0.82522681  0.67797537  0.40432851
   0.32883316  0.32695084  0.59762305
   0.32579428  0.82232717  0.90423116
   0.82561718  0.17669646  0.09667216
   0.82522681  0.17797536  0.90432854
   0.32883316  0.82695084  0.09762308
   0.53101298  0.47370481  0.13731579
   0.02946852  0.52552896  0.86346610
   0.02927181  0.52462411  0.13740375
   0.52988135  0.47408809  0.86343907
   0.53101298  0.97370484  0.63731579
   0.02946852  0.02552897  0.36346607
   0.02927181  0.02462413  0.63740375
   0.52988135  0.97408812  0.36343905
   0.29587176  0.18346786  0.30425779
   0.79443784  0.81489204  0.69544541
   0.79459508  0.81524133  0.30431062
   0.29466628  0.18495477  0.69556078
   0.29587176  0.68346788  0.80425779
   0.79443784  0.31489207  0.19544539
   0.79459508  0.31524136  0.80431062
   0.29466628  0.68495478  0.19556076
   0.49413945  0.49409472  0.25105949
   0.99398923  0.50583698  0.74854777
   0.99355001  0.50605362  0.25102473
   0.49406292  0.49377749  0.74856817
   0.49413945  0.99409475  0.75105949
   0.99398923  0.00583699  0.24854777
   0.99355001  0.00605364  0.75102473
   0.49406292  0.99377752  0.24856817
   0.00677271  0.96072103  0.03760360
   0.51199126  0.04130762  0.96154393
   0.51433049  0.04595842  0.03749851
   0.00990553  0.96008376  0.96148613
   0.00677271  0.46072100  0.53760360
   0.51199126  0.54130760  0.46154393
   0.51433049  0.54595840  0.53749851
   0.00990553  0.46008373  0.46148613
   0.10617052  0.05450229  0.15059755
   0.60852135  0.94534954  0.85011260
   0.60754847  0.94645964  0.15058675
   0.10805972  0.05606528  0.85014832
   0.10617052  0.55450229  0.65059755
   0.60852135  0.44534954  0.35011260
   0.60754847  0.44645964  0.65058675
   0.10805972  0.55606528  0.35014832
   0.29586817  0.25098519  0.34730181
   0.29586817  0.75098519  0.84730181
   0.29378353  0.24508413  0.54986717
   0.29378353  0.74508415  0.04986720
BiTiFeO                                 
           1
     5.507157    0.006139    0.005635
     0.006121    5.499837   -0.002672
     0.041049   -0.019501   40.739753
   Bi   Ti   O    Fe
  20  12  60   4
Direct configuration=     3
   0.24727596  0.23908397  0.00150487
   0.74449618  0.76201635  0.00143709
   0.24727596  0.73908398  0.50150487
   0.74449618  0.26201638  0.50143709
   0.25402063  0.24689755  0.10387271
   0.75346440  0.74959172  0.89382513
   0.74997840  0.75134487  0.10394322
   0.25529477  0.24990772  0.89382072
   0.25402063  0.74689753  0.60387266
   0.75346440  0.24959172  0.39382507
   0.74997840  0.25134487  0.60394317
   0.25529477  0.74990770  0.39382066
   0.22499202  0.27342878  0.21949934
   0.72187786  0.72612960  0.78140493
   0.72499875  0.72674999  0.21945819
   0.22519465  0.27679611  0.78137875
   0.22499202  0.77342875  0.71949937
   0.72187786  0.22612956  0.28140493
   0.72499875  0.22674995  0.71945822
   0.22519465  0.77679608  0.28137875
   0.79784078  0.74805352  0.34777779
   0.79784078  0.24805354  0.84777779
   0.29602793  0.25070306  0.65190682
   0.29602793  0.75070306  0.15190682
   0.79728088  0.74963611  0.65224962
   0.79728088  0.24963613  0.15224962
   0.29134293  0.24567336  0.45021997
   0.29134293  0.74567338  0.95022000
   0.79221700  0.75398815  0.45009177
   0.79221700  0.25398815  0.95009180
   0.79381589  0.75433875  0.54994020
   0.79381589  0.25433875  0.04994022
   0.31942824  0.15984816  0.49919772
   0.81901148  0.83943887  0.49951747
   0.31942824  0.65984814 -0.00080228
   0.81901148  0.33943887 -0.00048253
   0.60090587  0.55300362  0.05521428
   0.09908965  0.44928199  0.94502153
   0.09664175  0.44047123  0.05485288
   0.60015150  0.54992193  0.94500427
   0.60090587  0.05300364  0.55521427
   0.09908965  0.94928202  0.44502150
   0.09664175  0.94047126  0.55485287
   0.60015150  0.04992195  0.44500424
   0.32509343  0.32218042  0.40407967
   0.82489031  0.67661123  0.59694903
   0.82443105  0.67791664  0.40393645
   0.32871495  0.32654044  0.59751328
   0.32509343  0.82218042  0.90407970
   0.82489031  0.17661121  0.09694906
   0.82443105  0.17791663  0.90393648
   0.32871495  0.82654044  0.09751331
   0.53063680  0.47378608  0.13728175
   0.02917994  0.52535197  0.86329531
   0.02914313  0.52462205  0.13739246
   0.53045521  0.47367196  0.86325834
   0.53063680  0.97378611  0.63728175
   0.02917994  0.02535198  0.36329528
   0.02914313  0.02462207  0.63739246
   0.53045521  0.97367199  0.36325831
   0.29610152  0.18281344  0.30387805
   0.79401959  0.81479150  0.69569378
   0.79425711  0.81534221  0.30388791
   0.29439132  0.18531380  0.69553618
   0.29610152  0.68281345  0.80387805
   0.79401959  0.31479153  0.19569377
   0.79425711  0.31534224  0.80388791
   0.29439132  0.68531381  0.19553617
   0.49417590  0.49398539  0.25111103
   0.99372027  0.50557488  0.74852233
   0.99328780  0.50617919  0.25106516
   0.49405547  0.49379118  0.74854425
   0.49417590  0.99398542  0.75111103
   0.99372027  0.00557490  0.24852233
   0.99328780  0.00617920  0.75106516
   0.49405547  0.99379121  0.24854425
   0.00814348  0.96069808  0.03786713
   0.51187093  0.04076519  0.96157522
   0.51493344  0.04533071  0.03776675
   0.01020924  0.95998517  0.96151570
   0.00814348  0.46069805  0.53786713
   0.51187093  0.54076518  0.46157522
   0.51493344  0.54533069  0.53776675
   0.01020924  0.45998514  0.46151570
   0.10626759  0.05453152  0.15056881
   0.60800519  0.94608809  0.84997538
   0.60728289  0.94624857  0.15057582
   0.10746496  0.05562686  0.85000498
   0.10626759  0.55453152  0.65056881
   0.60800519  0.44608809  0.34997538
   0.60728289  0.44624857  0.65057582
   0.10746496  0.55562686  0.35000498
   0.29539794  0.25066752  0.34742808
   0.29539794  0.75066752  0.84742808
   0.29332283  0.24528037  0.54963782
   0.29332283  0.74528038  0.04963784
BiTiFeO                                 
           1
     5.506396    0.006451    0.005187
     0.006433    5.499825   -0.003040
     0.037644   -0.022200   40.777587
   Bi   Ti   O    Fe
  20  12  60   4
Direct configuration=     4
   0.24759992  0.23976809  0.00137636
   0.74465186  0.76163664  0.00124547
   0.24759992  0.73976811  0.50137636
   0.74465186  0.26163667  0.50124547
   0.25392287  0.24694854  0.10385347
   0.75370499  0.74911804  0.89394772
   0.74957040  0.75124651  0.10394227
   0.25656711  0.25019770  0.89393685
   0.25392287  0.74694853  0.60385342
   0.75370499  0.24911804  0.39394766
   0.74957040  0.25124651  0.60394222
   0.25656711  0.75019769  0.39393679
   0.22532594  0.27296927  0.21985094
   0.72012091  0.72636482  0.78137937
   0.72623013  0.72727896  0.21973351
   0.22522266  0.27864863  0.78132788
   0.22532594  0.77296924  0.71985097
   0.72012091  0.22636478  0.28137937
   0.72623013  0.22727892  0.71973354
   0.22522266  0.77864860  0.28132788
   0.79781301  0.74904982  0.34736474
   0.79781301  0.24904983  0.84736474
   0.29565320  0.24992055  0.65236908
   0.29565320  0.74992055  0.15236908
   0.79743253  0.75009115  0.65266676
   0.79743253  0.25009117  0.15266676
   0.29096932  0.24629190  0.45012140
   0.29096932  0.74629191  0.95012143
   0.79237878  0.75363876  0.45018633
   0.79237878  0.25363876  0.95018636
   0.79386664  0.75374927  0.54956034
   0.79386664  0.25374927  0.04956036
   0.31992248  0.16142858  0.49978599
   0.81963304  0.83825115  0.49987574
   0.31992248  0.66142857 -0.00021401
   0.81963304  0.33825115 -0.00012426
   0.59963044  0.55354288  0.05514150
   0.09906234  0.45016024  0.94516739
   0.09753767  0.44044795  0.05460911
   0.59957889  0.54931481  0.94518253
   0.59963044  0.05354290  0.55514149
   0.09906234  0.95016027  0.44516736
   0.09753767  0.94044798  0.55460910
   0.59957889  0.04931483  0.44518250
   0.32357112  0.32169520  0.40421639
   0.82346870  0.67694450  0.59687896
   0.82273850  0.67852153  0.40384608
   0.32895803  0.32619975  0.59713246
   0.32357112  0.82169520  0.90421642
   0.82346870  0.17694449  0.09687899
   0.82273850  0.17852152  0.90384611
   0.32895803  0.82619975  0.09713249
   0.53007487  0.47389159  0.13716221
   0.02877219  0.52473108  0.86318117
   0.02912187  0.52467333  0.13732071
   0.53139420  0.47315698  0.86312475
   0.53007487  0.97389162  0.63716221
   0.02877219  0.02473109  0.36318114
   0.02912187  0.02467334  0.63732071
   0.53139420  0.97315701  0.36312472
   0.29713449  0.18179567  0.30372601
   0.79347711  0.81377641  0.69540377
   0.79406300  0.81420075  0.30424789
   0.29404014  0.18630136  0.69511290
   0.29713449  0.68179568  0.80372601
   0.79347711  0.31377644  0.19540375
   0.79406300  0.31420078  0.80424789
   0.29404014  0.68630138  0.19511289
   0.49450070  0.49396419  0.25111407
   0.99389132  0.50508265  0.74852056
   0.99341978  0.50659848  0.25106511
   0.49440137  0.49388116  0.74854842
   0.49450070  0.99396422  0.75111407
   0.99389132  0.00508266  0.24852056
   0.99341978  0.00659850  0.75106511
   0.49440137  0.99388119  0.24854842
   0.00986671  0.96144730  0.03818732
   0.51258992  0.03978939  0.96161150
   0.51642197  0.04479366  0.03807104
   0.01087220  0.96045085  0.96152653
   0.00986671  0.46144727  0.53818732
   0.51258992  0.53978937  0.46161150
   0.51642197  0.54479365  0.53807104
   0.01087220  0.46045082  0.46152653
   0.10665427  0.05449985  0.15036915
   0.60773810  0.94711464  0.85006367
   0.60687776  0.94583684  0.15040004
   0.10678087  0.05583379  0.85009486
   0.10665427  0.55449985  0.65036915
   0.60773810  0.44711464  0.35006367
   0.60687776  0.44583684  0.65040004
   0.10678087  0.55583379  0.35009486
   0.29459824  0.24968113  0.34703209
   0.29459824  0.74968113  0.84703209
   0.29297728  0.24507354  0.54941752
   0.29297728  0.74507356  0.04941754
BiTiFeO                                 
           1
     5.506808    0.007800    0.004174
     0.007779    5.502305   -0.003446
     0.029907   -0.025169   40.814148
   Bi   Ti   O    Fe
  20  12  60   4
Direct configuration=     5
   0.24779352  0.23992962  0.00140595
   0.74468170  0.76156244  0.00125610
   0.24779352  0.73992964  0.50140595
   0.74468170  0.26156246  0.50125610
   0.25381491  0.24695476  0.10385071
   0.75375152  0.74914728  0.89389739
   0.74951064  0.75132057  0.10394400
   0.25664838  0.25018647  0.89387879
   0.25381491  0.74695475  0.60385067
   0.75375152  0.24914728  0.39389733
   0.74951064  0.25132057  0.60394395
   0.25664838  0.75018645  0.39387873
   0.22546019  0.27287542  0.21990643
   0.71966167  0.72657855  0.78141492
   0.72666180  0.72739017  0.21976445
   0.22531625  0.27895697  0.78136815
   0.22546019  0.77287539  0.71990646
   0.71966167  0.22657850  0.28141492
   0.72666180  0.22739013  0.71976448
   0.22531625  0.77895694  0.28136815
   0.79793891  0.74871804  0.34750556
   0.79793891  0.24871805  0.84750556
   0.29566608  0.25003328  0.65219019
   0.29566608  0.75003328  0.15219019
   0.79740450  0.74986308  0.65248621
   0.79740450  0.24986310  0.15248621
   0.29100645  0.24642312  0.45011484
   0.29100645  0.74642314  0.95011487
   0.79242979  0.75348496  0.45013062
   0.79242979  0.25348496  0.95013065
   0.79396251  0.75380160  0.54963885
   0.79396251  0.25380160  0.04963888
   0.31998681  0.16184905  0.49990048
   0.81974428  0.83798955  0.49988253
   0.31998681  0.66184903 -0.00009952
   0.81974428  0.33798955 -0.00011747
   0.59924769  0.55375234  0.05509322
   0.09896082  0.45029519  0.94522572
   0.09768718  0.44046407  0.05453989
   0.59942065  0.54914822  0.94525522
   0.59924769  0.05375235  0.55509320
   0.09896082  0.95029522  0.44522569
   0.09768718  0.94046410  0.55453988
   0.59942065  0.04914823  0.44525519
   0.32321040  0.32155403  0.40426828
   0.82320468  0.67711845  0.59681081
   0.82239348  0.67874163  0.40391998
   0.32884954  0.32602863  0.59696970
   0.32321040  0.82155403  0.90426831
   0.82320468  0.17711843  0.09681084
   0.82239348  0.17874161  0.90392001
   0.32884954  0.82602863  0.09696973
   0.52997113  0.47387745  0.13715809
   0.02879964  0.52473232  0.86317214
   0.02907394  0.52466495  0.13732441
   0.53132930  0.47327608  0.86311618
   0.52997113  0.97387748  0.63715809
   0.02879964  0.02473234  0.36317211
   0.02907394  0.02466497  0.63732441
   0.53132930  0.97327611  0.36311615
   0.29742392  0.18146475  0.30361924
   0.79330547  0.81383192  0.69556080
   0.79397357  0.81428728  0.30409934
   0.29386708  0.18615029  0.69528524
   0.29742392  0.68146477  0.80361924
   0.79330547  0.31383195  0.19556079
   0.79397357  0.31428731  0.80409934
   0.29386708  0.68615030  0.19528522
   0.49456938  0.49400366  0.25110613
   0.99382917  0.50497077  0.74851187
   0.99337174  0.50667605  0.25105972
   0.49450244  0.49385537  0.74853342
   0.49456938  0.99400369  0.75110613
   0.99382917  0.00497079  0.24851187
   0.99337174  0.00667606  0.75105972
   0.49450244  0.99385540  0.24853342
   0.01040697  0.96132969  0.03821527
   0.51282380  0.03954097  0.96162208
   0.51652561  0.04461446  0.03808790
   0.01100770  0.96065581  0.96152975
   0.01040697  0.46132966  0.53821527
   0.51282380  0.53954095  0.46162208
   0.51652561  0.54461445  0.53808790
   0.01100770  0.46065578  0.46152975
   0.10668438  0.05452632  0.15033698
   0.60757620  0.94710809  0.85010201
   0.60678769  0.94578200  0.15036796
   0.10685775  0.05580045  0.85013309
   0.10668438  0.55452632  0.65033698
   0.60757620  0.44710809  0.35010201
   0.60678769  0.44578200  0.65036796
   0.10685775  0.55580045  0.35013309
   0.29451131  0.24971571  0.34700319
   0.29451131  0.74971571  0.84700319
   0.29318732  0.24496799  0.54943616
   0.29318732  0.74496800  0.04943618
BiTiFeO                                 
           1
     5.499958    0.008493    0.004337
     0.008471    5.495972   -0.003661
     0.030893   -0.026708   40.842713
   Bi   Ti   O    Fe
  20  12  60   4
Direct configuration=     6
   0.24842628  0.24061916  0.00149262
   0.74491311  0.76119213  0.00126680
   0.24842628  0.74061918  0.50149262
   0.74491311  0.26119216  0.50126680
   0.25361258  0.24707320  0.10378878
   0.75382481  0.74900683  0.89378384
   0.74931273  0.75140288  0.10389425
   0.25731101  0.25031885  0.89374694
   0.25361258  0.74707318  0.60378873
   0.75382481  0.24900683  0.39378378
   0.74931273  0.25140288  0.60389420
   0.25731101  0.75031883  0.39374688
   0.22594892  0.27271165  0.22009221
   0.71804756  0.72734811  0.78146589
   0.72838196  0.72764838  0.21986789
   0.22550834  0.28003253  0.78142447
   0.22594892  0.77271162  0.72009224
   0.71804756  0.22734806  0.28146589
   0.72838196  0.22764834  0.71986792
   0.22550834  0.78003250  0.28142447
   0.79810169  0.74857830  0.34742508
   0.79810169  0.24857832  0.84742508
   0.29556366  0.24926122  0.65238589
   0.29556366  0.74926122  0.15238589
   0.79715043  0.75014693  0.65264538
   0.79715043  0.25014695  0.15264538
   0.29112770  0.24691085  0.45015668
   0.29112770  0.74691086  0.95015671
   0.79266959  0.75308586  0.45011612
   0.79266959  0.25308586  0.95011615
   0.79406803  0.75386290  0.54968812
   0.79406803  0.25386290  0.04968814
   0.32024150  0.16354163  0.50034919
   0.82019632  0.83688631  0.49995281
   0.32024150  0.66354161  0.00034919
   0.82019632  0.33688631 -0.00004719
   0.59802773  0.55440769  0.05494674
   0.09868750  0.45080376  0.94544474
   0.09830986  0.44046880  0.05432062
   0.59876461  0.54865234  0.94553140
   0.59802773  0.05440771  0.55494672
   0.09868750  0.95080379  0.44544471
   0.09830986  0.94046883  0.55432061
   0.59876461  0.04865235  0.44553137
   0.32179536  0.32109500  0.40443395
   0.82212962  0.67779007  0.59667282
   0.82102400  0.67948437  0.40404848
   0.32830310  0.32537492  0.59641346
   0.32179536  0.82109500  0.90443398
   0.82212962  0.17779005  0.09667285
   0.82102400  0.17948436  0.90404851
   0.32830310  0.82537492  0.09641349
   0.52953918  0.47382844  0.13707295
   0.02881900  0.52467610  0.86313376
   0.02881128  0.52462607  0.13727364
   0.53116841  0.47362353  0.86308523
   0.52953918  0.97382847  0.63707295
   0.02881900  0.02467612  0.36313373
   0.02881128  0.02462609  0.63727364
   0.53116841  0.97362356  0.36308520
   0.29853553  0.18061722  0.30337674
   0.79269356  0.81285988  0.69543210
   0.79368184  0.81369490  0.30408200
   0.29319866  0.18677311  0.69517726
   0.29853553  0.68061724  0.80337674
   0.79269356  0.31285991  0.19543209
   0.79368184  0.31369493  0.80408200
   0.29319866  0.68677312  0.19517724
   0.49483264  0.49416245  0.25111981
   0.99364473  0.50460541  0.74854160
   0.99332982  0.50696176  0.25109625
   0.49486147  0.49383733  0.74853162
   0.49483264  0.99416248  0.75111981
   0.99364473  0.00460542  0.24854160
   0.99332982  0.00696177  0.75109625
   0.49486147  0.99383736  0.24853162
   0.01250742  0.96094260  0.03836568
   0.51369895  0.03847409  0.96166455
   0.51727751  0.04410867  0.03819199
   0.01163757  0.96138693  0.96154189
   0.01250742  0.46094257  0.53836568
   0.51369895  0.53847407  0.46166455
   0.51727751  0.54410866  0.53819199
   0.01163757  0.46138690  0.46154189
   0.10676508  0.05456042  0.15011464
   0.60688714  0.94725051  0.85028256
   0.60642346  0.94562597  0.15014611
   0.10697062  0.05552395  0.85030066
   0.10676508  0.55456042  0.65011464
   0.60688714  0.44725051  0.35028256
   0.60642346  0.44562597  0.65014611
   0.10697062  0.55552395  0.35030066
   0.29418710  0.24938407  0.34671809
   0.29418710  0.74938407  0.84671809
   0.29388089  0.24477180  0.54939569
   0.29388089  0.74477182  0.04939571
BiTiFeO                                 
           1
     5.502042    0.009420    0.004414
     0.009397    5.498892   -0.004391
     0.030987   -0.032046   40.928772
   Bi   Ti   O    Fe
  20  12  60   4
Direct configuration=     7
   0.24878152  0.24118357  0.00160960
   0.74527312  0.76090776  0.00132070
   0.24878152  0.74118358  0.50160960
   0.74527312  0.26090779  0.50132070
   0.25333405  0.24684989  0.10367318
   0.75363380  0.74889782  0.89386986
   0.74890800  0.75162778  0.10378134
   0.25779177  0.25040249  0.89382478
   0.25333405  0.74684988  0.60367314
   0.75363380  0.24889782  0.39386980
   0.74890800  0.25162778  0.60378130
   0.25779177  0.75040248  0.39382472
   0.22623084  0.27266167  0.22020503
   0.71692285  0.72786257  0.78148530
   0.72969865  0.72780694  0.21993327
   0.22559699  0.28074767  0.78143584
   0.22623084  0.77266164  0.72020506
   0.71692285  0.22786252  0.28148530
   0.72969865  0.22780689  0.71993330
   0.22559699  0.78074764  0.28143584
   0.79798415  0.74871419  0.34740068
   0.79798415  0.24871421  0.84740068
   0.29546329  0.24916919  0.65222964
   0.29546329  0.74916919  0.15222964
   0.79706341  0.74985987  0.65243559
   0.79706341  0.24985989  0.15243559
   0.29113678  0.24716133  0.45033570
   0.29113678  0.74716135  0.95033573
   0.79285612  0.75297342  0.45030072
   0.79285612  0.25297342  0.95030075
   0.79413502  0.75379180  0.54961306
   0.79413502  0.25379180  0.04961309
   0.32045003  0.16480471  0.50061203
   0.82056102  0.83601210  0.49999325
   0.32045003  0.66480469  0.00061203
   0.82056102  0.33601210 -0.00000675
   0.59788801  0.55435419  0.05485057
   0.09864801  0.45118307  0.94558379
   0.09860283  0.44013388  0.05419379
   0.59833241  0.54834197  0.94571972
   0.59788801  0.05435421  0.55485055
   0.09864801  0.95118310  0.44558376
   0.09860283  0.94013391  0.55419378
   0.59833241  0.04834198  0.44571969
   0.32084666  0.32096502  0.40446980
   0.82137113  0.67833297  0.59664205
   0.82009709  0.67986244  0.40397803
   0.32778757  0.32504041  0.59606684
   0.32084666  0.82096502  0.90446983
   0.82137113  0.17833296  0.09664208
   0.82009709  0.17986242  0.90397806
   0.32778757  0.82504041  0.09606687
   0.52922979  0.47387179  0.13704948
   0.02881757  0.52456345  0.86302195
   0.02859637  0.52459992  0.13727833
   0.53117632  0.47379546  0.86298875
   0.52922979  0.97387182  0.63704948
   0.02881757  0.02456347  0.36302192
   0.02859637  0.02459993  0.63727833
   0.53117632  0.97379549  0.36298872
   0.29947793  0.18015889  0.30319099
   0.79216749  0.81242729  0.69558023
   0.79347005  0.81309767  0.30411052
   0.29254764  0.18691224  0.69532930
   0.29947793  0.68015891  0.80319099
   0.79216749  0.31242732  0.19558022
   0.79347005  0.31309770  0.80411052
   0.29254764  0.68691225  0.19532929
   0.49506789  0.49443343  0.25112586
   0.99356831  0.50447667  0.74858280
   0.99341155  0.50705099  0.25113763
   0.49515942  0.49375291  0.74853078
   0.49506789  0.99443346  0.75112586
   0.99356831  0.00447669  0.24858280
   0.99341155  0.00705101  0.75113763
   0.49515942  0.99375294  0.24853078
   0.01371952  0.96099869  0.03847061
   0.51446094  0.03762463  0.96168631
   0.51831338  0.04409816  0.03825105
   0.01228766  0.96187967  0.96153675
   0.01371952  0.46099866  0.53847061
   0.51446094  0.53762461  0.46168631
   0.51831338  0.54409815  0.53825105
   0.01228766  0.46187964  0.46153675
   0.10671796  0.05432324  0.14995824
   0.60620238  0.94769264  0.85036225
   0.60599644  0.94566104  0.14998370
   0.10672902  0.05501188  0.85035894
   0.10671796  0.55432324  0.64995824
   0.60620238  0.44769264  0.35036225
   0.60599644  0.44566104  0.64998370
   0.10672902  0.55501188  0.35035894
   0.29394954  0.24904676  0.34659061
   0.29394954  0.74904676  0.84659061
   0.29433756  0.24487374  0.54931067
   0.29433756  0.74487376  0.04931069
BiTiFeO                                 
           1
     5.498908    0.009125    0.004518
     0.009103    5.495327   -0.003947
     0.031735   -0.028738   40.897579
   Bi   Ti   O    Fe
  20  12  60   4
Direct configuration=     8
   0.24985071  0.24232699  0.00188322
   0.74644700  0.76051883  0.00144970
   0.24985071  0.74232700  0.50188322
   0.74644700  0.26051886  0.50144970
   0.25286889  0.24643455  0.10342779
   0.75321309  0.74914539  0.89391929
   0.74836855  0.75195434  0.10353977
   0.25832968  0.25014488  0.89383709
   0.25286889  0.74643454  0.60342775
   0.75321309  0.24914539  0.39391923
   0.74836855  0.25195434  0.60353972
   0.25832968  0.75014487  0.39383703
   0.22693213  0.27260185  0.22032420
   0.71487177  0.72927312  0.78160158
   0.73263192  0.72811429  0.21997338
   0.22612477  0.28165949  0.78152934
   0.22693213  0.77260182  0.72032423
   0.71487177  0.22927307  0.28160158
   0.73263192  0.22811425  0.71997341
   0.22612477  0.78165946  0.28152934
   0.79811218  0.74813212  0.34769964
   0.79811218  0.24813214  0.84769964
   0.29507804  0.24812360  0.65234255
   0.29507804  0.74812360  0.15234255
   0.79670087  0.75009166  0.65246474
   0.79670087  0.25009168  0.15246474
   0.29147919  0.24785452  0.45041735
   0.29147919  0.74785453  0.95041738
   0.79343979  0.75242307  0.45023510
   0.79343979  0.25242307  0.95023513
   0.79472894  0.75377025  0.54964439
   0.79472894  0.25377025  0.04964441
   0.32077082  0.16747836  0.50113219
   0.82128430  0.83415975  0.50008901
   0.32077082  0.66747834  0.00113219
   0.82128430  0.33415975  0.00008901
   0.59800104  0.55403066  0.05458093
   0.09837295  0.45184460  0.94599260
   0.09953942  0.43948807  0.05387643
   0.59746488  0.54755597  0.94624462
   0.59800104  0.05403067  0.55458092
   0.09837295  0.95184463  0.44599257
   0.09953942  0.93948810  0.55387642
   0.59746488  0.04755599  0.44624459
   0.31879805  0.32026987  0.40480137
   0.81970200  0.67974174  0.59651592
   0.81809360  0.68117485  0.40418642
   0.32649152  0.32430113  0.59536726
   0.31879805  0.82026987  0.90480140
   0.81970200  0.17974172  0.09651595
   0.81809360  0.18117483  0.90418645
   0.32649152  0.82430113  0.09536729
   0.52836846  0.47400188  0.13693223
   0.02890837  0.52474081  0.86279782
   0.02796670  0.52465988  0.13721717
   0.53047316  0.47455746  0.86280430
   0.52836846  0.97400191  0.63693223
   0.02890837  0.02474083  0.36279779
   0.02796670  0.02465989  0.63721717
   0.53047316  0.97455749  0.36280427
   0.30150116  0.17958468  0.30279911
   0.79102927  0.81067166  0.69548336
   0.79280815  0.81216037  0.30382174
   0.29094219  0.18790009  0.69530855
   0.30150116  0.67958470  0.80279911
   0.79102927  0.31067169  0.19548334
   0.79280815  0.31216040  0.80382174
   0.29094219  0.68790010  0.19530853