BiTiFeO                                 
           1
     5.486129    0.000000    0.000000
     0.000000    5.468535    0.000305
     0.000000    0.002253   40.582663
   Bi   Ti   O    Fe
  20  12  60   4
Direct configuration=     1
   0.24484409  0.23757862  0.00000000
   0.74484408  0.76242137  0.00000000
   0.24484409  0.73757863  0.50000000
   0.74484408  0.26242140  0.50000000
   0.25198972  0.24830766  0.10393570
   0.75198966  0.75169236  0.89606434
   0.75198966  0.75169236  0.10393570
   0.25198972  0.24830766  0.89606434
   0.25198972  0.74830764  0.60393566
   0.75198966  0.25169236  0.39606428
   0.75198966  0.25169236  0.60393566
   0.25198972  0.74830764  0.39606428
   0.22412699  0.27433315  0.21935007
   0.72412699  0.72566688  0.78064990
   0.72412699  0.72566688  0.21935007
   0.22412699  0.27433315  0.78064990
   0.22412699  0.77433312  0.71935010
   0.72412699  0.22566684  0.28064990
   0.72412699  0.22566684  0.71935010
   0.22412699  0.77433312  0.28064990
   0.29682383  0.25109082  0.34797305
   0.29682383  0.75109082  0.84797305
   0.79682386  0.74890918  0.34797305
   0.79682386  0.24890919  0.84797305
   0.29682383  0.25109082  0.65202695
   0.29682383  0.75109082  0.15202695
   0.79682386  0.74890918  0.65202695
   0.79682386  0.24890919  0.15202695
   0.79357010  0.75361604  0.45064172
   0.79357010  0.25361604  0.95064175
   0.29357013  0.24638395  0.54935825
   0.29357013  0.74638396  0.04935827
   0.31881350  0.15770908  0.50000000
   0.81881350  0.84229094  0.50000000
   0.31881350  0.65770906  0.00000000
   0.81881350  0.34229094  0.00000000
   0.60082728  0.55501008  0.05564614
   0.10082728  0.44498989  0.94435388
   0.10082728  0.44498989  0.05564614
   0.60082728  0.55501008  0.94435388
   0.60082728  0.05501010  0.55564612
   0.10082728  0.94498992  0.44435385
   0.10082728  0.94498992  0.55564612
   0.60082728  0.05501010  0.44435385
   0.32772058  0.32494432  0.40226784
   0.82772058  0.67505568  0.59773213
   0.82772058  0.67505568  0.40226784
   0.32772058  0.32494432  0.59773213
   0.32772058  0.82494432  0.90226787
   0.82772058  0.17505567  0.09773216
   0.82772058  0.17505567  0.90226787
   0.32772058  0.82494432  0.09773216
   0.53021055  0.47461614  0.13739407
   0.03021055  0.52538383  0.86260593
   0.03021055  0.52538383  0.13739407
   0.53021055  0.47461614  0.86260593
   0.53021055  0.97461617  0.63739407
   0.03021055  0.02538385  0.36260590
   0.03021055  0.02538385  0.63739407
   0.53021055  0.97461617  0.36260590
   0.29461476  0.18484382  0.30443299
   0.79461479  0.81515616  0.69556701
   0.79461479  0.81515616  0.30443299
   0.29461476  0.18484382  0.69556701
   0.29461476  0.68484384  0.80443299
   0.79461479  0.31515619  0.19556700
   0.79461479  0.31515619  0.80443299
   0.29461476  0.68484384  0.19556700
   0.49390233  0.49391797  0.25123006
   0.99390238  0.50608200  0.74876994
   0.99390238  0.50608200  0.25123006
   0.49390233  0.49391797  0.74876994
   0.49390233  0.99391800  0.75123006
   0.99390238  0.00608201  0.24876994
   0.99390238  0.00608201  0.75123006
   0.49390233  0.99391800  0.24876994
   0.00880992  0.95784479  0.03788698
   0.50880992  0.04215522  0.96211302
   0.50880992  0.04215522  0.03788698
   0.00880992  0.95784479  0.96211302
   0.00880992  0.45784476  0.53788698
   0.50880992  0.54215521  0.46211302
   0.50880992  0.54215521  0.53788698
   0.00880992  0.45784476  0.46211302
   0.10677507  0.05355787  0.15066576
   0.60677504  0.94644213  0.84933424
   0.60677504  0.94644213  0.15066576
   0.10677507  0.05355787  0.84933424
   0.10677507  0.55355787  0.65066576
   0.60677504  0.44644213  0.34933424
   0.60677504  0.44644213  0.65066576
   0.10677507  0.55355787  0.34933424
   0.79357010  0.75361604  0.54935825
   0.79357010  0.25361604  0.04935827
   0.29357013  0.24638395  0.45064172
   0.29357013  0.74638396  0.95064175
BiTiFeO                                 
           1
     5.511422    0.000000    0.000000
     0.000000    5.496203   -0.001040
     0.000000   -0.007732   40.770561
   Bi   Ti   O    Fe
  20  12  60   4
Direct configuration=     2
   0.24526669  0.23811150  0.00001984
   0.74526667  0.76188848 -0.00001984
   0.24526669  0.73811152  0.50001984
   0.74526667  0.26188851  0.49998016
   0.25002005  0.24870446  0.10384702
   0.75001999  0.75129556  0.89615303
   0.75285295  0.75233898  0.10382992
   0.25285300  0.24766104  0.89617012
   0.25002005  0.74870444  0.60384697
   0.75001999  0.25129556  0.39615297
   0.75285295  0.25233898  0.60382988
   0.25285300  0.74766102  0.39617006
   0.22412778  0.27429167  0.21934793
   0.72412778  0.72570836  0.78065204
   0.72421768  0.72561292  0.21934435
   0.22421768  0.27438711  0.78065562
   0.22412778  0.77429164  0.71934796
   0.72412778  0.22570832  0.28065204
   0.72421768  0.22561288  0.71934438
   0.22421768  0.77438708  0.28065562
   0.29671693  0.25124665  0.34819188
   0.29671693  0.75124665  0.84819188
   0.79688915  0.74923419  0.34778111
   0.79688915  0.24923420  0.84778111
   0.29688912  0.25076581  0.65221889
   0.29688912  0.75076581  0.15221889
   0.79671696  0.74875335  0.65180812
   0.79671696  0.24875336  0.15180812
   0.79273852  0.75567446  0.45078704
   0.79273852  0.25567446  0.95078707
   0.29273855  0.24432552  0.54921293
   0.29273855  0.74432554  0.04921295
   0.31934440  0.15918572  0.50041769
   0.81934440  0.84081429  0.49958231
   0.31934440  0.65918571  0.00041769
   0.81934440  0.34081429 -0.00041769
   0.59950807  0.55541607  0.05539960
   0.09950807  0.44458390  0.94460041
   0.10318053  0.44957530  0.05544887
   0.60318053  0.55042467  0.94455115
   0.59950807  0.05541609  0.55539959
   0.09950807  0.94458393  0.44460038
   0.10318053  0.94957533  0.55544885
   0.60318053  0.05042468  0.44455112
   0.32799825  0.32491890  0.40261906
   0.82799825  0.67508110  0.59738091
   0.82613938  0.67623553  0.40294561
   0.32613938  0.32376447  0.59705436
   0.32799825  0.82491890  0.90261909
   0.82799825  0.17508109  0.09738094
   0.82613938  0.17623551  0.90294564
   0.32613938  0.82376447  0.09705439
   0.52967477  0.47507459  0.13744067
   0.02967476  0.52492538  0.86255933
   0.03071737  0.52582763  0.13738816
   0.53071738  0.47417234  0.86261184
   0.52967477  0.97507462  0.63744067
   0.02967476  0.02492540  0.36255930
   0.03071737  0.02582765  0.63738816
   0.53071738  0.97417237  0.36261181
   0.29469623  0.18475940  0.30438431
   0.79469626  0.81524059  0.69561569
   0.79460137  0.81504947  0.30446436
   0.29460134  0.18495051  0.69553564
   0.29469623  0.68475941  0.80438431
   0.79469626  0.31524062  0.19561567
   0.79460137  0.31504950  0.80446436
   0.29460134  0.68495053  0.19553563
   0.49396568  0.49396827  0.25124276
   0.99396574  0.50603170  0.74875724
   0.99395984  0.50609877  0.25124239
   0.49395978  0.49390120  0.74875761
   0.49396568  0.99396830  0.75124276
   0.99396574  0.00603171  0.24875724
   0.99395984  0.00609878  0.75124239
   0.49395978  0.99390123  0.24875761
   0.01227696  0.95680315  0.03825012
   0.51227696  0.04319687  0.96174988
   0.50866237  0.03921022  0.03817379
   0.00866237  0.96078979  0.96182621
   0.01227696  0.45680312  0.53825012
   0.51227696  0.54319685  0.46174988
   0.50866237  0.53921021  0.53817379
   0.00866237  0.46078976  0.46182621
   0.10728831  0.05337012  0.15067867
   0.60728829  0.94662988  0.84932133
   0.60637825  0.94593014  0.15066691
   0.10637827  0.05406986  0.84933309
   0.10728831  0.55337012  0.65067867
   0.60728829  0.44662988  0.34932133
   0.60637825  0.44593014  0.65066691
   0.10637827  0.55406986  0.34933309
   0.79117838  0.75382851  0.54971334
   0.79117838  0.25382851  0.04971337
   0.29117841  0.24617147  0.45028663
   0.29117841  0.74617149  0.95028666
BiTiFeO                                 
           1
     5.514344    0.000000    0.000000
     0.000000    5.500522   -0.001682
     0.000000   -0.012521   40.725253
   Bi   Ti   O    Fe
  20  12  60   4
Direct configuration=     3
   0.24558997  0.23793969  0.00001239
   0.74558995  0.76206029 -0.00001239
   0.24558997  0.73793971  0.50001239
   0.74558995  0.26206032  0.49998761
   0.25036365  0.24867751  0.10369188
   0.75036359  0.75132250  0.89630817
   0.75316557  0.75231872  0.10366988
   0.25316562  0.24768129  0.89633017
   0.25036365  0.74867750  0.60369183
   0.75036359  0.25132250  0.39630811
   0.75316557  0.25231872  0.60366983
   0.25316562  0.74768128  0.39633011
   0.22441687  0.27378493  0.21920610
   0.72441687  0.72621510  0.78079387
   0.72472591  0.72597004  0.21919773
   0.22472591  0.27402999  0.78080224
   0.22441687  0.77378490  0.71920613
   0.72441687  0.22621506  0.28079387
   0.72472591  0.22596999  0.71919776
   0.22472591  0.77402996  0.28080224
   0.29646491  0.25107924  0.34819920
   0.29646491  0.75107924  0.84819920
   0.79703356  0.74918435  0.34796163
   0.79703356  0.24918437  0.84796163
   0.29703353  0.25081565  0.65203837
   0.29703353  0.75081565  0.15203837
   0.79646494  0.74892076  0.65180080
   0.79646494  0.24892077  0.15180080
   0.79274549  0.75499030  0.45084471
   0.79274549  0.25499030  0.95084474
   0.29274552  0.24500968  0.54915526
   0.29274552  0.74500970  0.04915528
   0.31946363  0.15970804  0.50034056
   0.81946363  0.84029198  0.49965944
   0.31946363  0.65970802  0.00034056
   0.81946363  0.34029198 -0.00034056
   0.60037441  0.55461566  0.05534174
   0.10037441  0.44538431  0.94465828
   0.10221607  0.44909448  0.05541586
   0.60221607  0.55090549  0.94458415
   0.60037441  0.05461568  0.55534172
   0.10037441  0.94538434  0.44465825
   0.10221607  0.94909451  0.55541585
   0.60221607  0.05090551  0.44458412
   0.32786868  0.32452761  0.40263523
   0.82786868  0.67547239  0.59736474
   0.82558938  0.67645546  0.40293044
   0.32558938  0.32354454  0.59706953
   0.32786868  0.82452761  0.90263526
   0.82786868  0.17547238  0.09736477
   0.82558938  0.17645544  0.90293047
   0.32558938  0.82354454  0.09706956
   0.52959996  0.47496599  0.13746339
   0.02959995  0.52503398  0.86253661
   0.03045109  0.52580154  0.13740281
   0.53045110  0.47419843  0.86259719
   0.52959996  0.97496602  0.63746339
   0.02959995  0.02503400  0.36253658
   0.03045109  0.02580156  0.63740281
   0.53045110  0.97419846  0.36259716
   0.29458676  0.18487348  0.30431622
   0.79458679  0.81512650  0.69568378
   0.79436743  0.81515519  0.30419908
   0.29436740  0.18484480  0.69580092
   0.29458676  0.68487350  0.80431622
   0.79458679  0.31512653  0.19568376
   0.79436743  0.31515522  0.80419908
   0.29436740  0.68484481  0.19580090
   0.49384178  0.49404386  0.25127190
   0.99384184  0.50595611  0.74872810
   0.99381688  0.50610503  0.25127015
   0.49381682  0.49389494  0.74872985
   0.49384178  0.99404389  0.75127190
   0.99384184  0.00595612  0.24872810
   0.99381688  0.00610505  0.75127015
   0.49381682  0.99389497  0.24872985
   0.01217301  0.95749137  0.03836114
   0.51217301  0.04250865  0.96163886
   0.50955347  0.03920133  0.03826352
   0.00955346  0.96079869  0.96173648
   0.01217301  0.45749134  0.53836114
   0.51217301  0.54250863  0.46163886
   0.50955347  0.53920131  0.53826352
   0.00955346  0.46079866  0.46173648
   0.10712742  0.05358421  0.15071267
   0.60712740  0.94641579  0.84928733
   0.60643414  0.94589984  0.15068464
   0.10643416  0.05410016  0.84931536
   0.10712742  0.55358421  0.65071267
   0.60712740  0.44641579  0.34928733
   0.60643414  0.44589984  0.65068464
   0.10643416  0.55410016  0.34931536
   0.79042987  0.75367996  0.54967879
   0.79042987  0.25367996  0.04967882
   0.29042990  0.24632003  0.45032118
   0.29042990  0.74632004  0.95032121
BiTiFeO                                 
           1
     5.501464    0.000000    0.000000
     0.000000    5.488005   -0.001039
     0.000000   -0.007745   40.701249
   Bi   Ti   O    Fe
  20  12  60   4
Direct configuration=     4
   0.24595383  0.23793803  0.00000676
   0.74595381  0.76206195 -0.00000676
   0.24595383  0.73793805  0.50000676
   0.74595381  0.26206198  0.49999324
   0.25000760  0.24867564  0.10355170
   0.75000754  0.75132438  0.89644835
   0.75332059  0.75238603  0.10352448
   0.25332065  0.24761398  0.89647557
   0.25000760  0.74867562  0.60355165
   0.75000754  0.25132438  0.39644829
   0.75332059  0.25238603  0.60352443
   0.25332065  0.74761397  0.39647551
   0.22462780  0.27340308  0.21919919
   0.72462780  0.72659695  0.78080078
   0.72511233  0.72618990  0.21919571
   0.22511233  0.27381013  0.78080426
   0.22462780  0.77340305  0.71919922
   0.72462780  0.22659690  0.28080078
   0.72511233  0.22618986  0.71919574
   0.22511233  0.77381010  0.28080426
   0.29618988  0.25074585  0.34799284
   0.29618988  0.75074585  0.84799284
   0.79715813  0.74946705  0.34774855
   0.79715813  0.24946707  0.84774855
   0.29715810  0.25053295  0.65225145
   0.29715810  0.75053295  0.15225145
   0.79618991  0.74925415  0.65200716
   0.79618991  0.24925417  0.15200716
   0.79264560  0.75470340  0.45091781
   0.79264560  0.25470340  0.95091784
   0.29264563  0.24529659  0.54908216
   0.29264563  0.74529660  0.04908218
   0.31996813  0.16062040  0.50028846
   0.81996813  0.83937961  0.49971154
   0.31996813  0.66062039  0.00028846
   0.81996813  0.33937961 -0.00028846
   0.60112191  0.55380937  0.05519966
   0.10112191  0.44619060  0.94480036
   0.10133615  0.44924923  0.05531483
   0.60133615  0.55075074  0.94468519
   0.60112191  0.05380939  0.55519964
   0.10112191  0.94619063  0.44480033
   0.10133615  0.94924926  0.55531481
   0.60133615  0.05075075  0.44468516
   0.32783134  0.32410953  0.40271943
   0.82783134  0.67589047  0.59728054
   0.82472845  0.67688679  0.40303192
   0.32472845  0.32311321  0.59696805
   0.32783134  0.82410953  0.90271946
   0.82783134  0.17589045  0.09728057
   0.82472845  0.17688677  0.90303195
   0.32472845  0.82311321  0.09696808
   0.52943606  0.47490368  0.13742866
   0.02943605  0.52509629  0.86257134
   0.03013627  0.52585881  0.13735054
   0.53013628  0.47414116  0.86264946
   0.52943606  0.97490371  0.63742866
   0.02943605  0.02509631  0.36257131
   0.03013627  0.02585883  0.63735054
   0.53013628  0.97414119  0.36264943
   0.29450113  0.18536906  0.30450211
   0.79450116  0.81463093  0.69549789
   0.79413553  0.81467518  0.30429941
   0.29413550  0.18532481  0.69570059
   0.29450113  0.68536907  0.80450211
   0.79450116  0.31463096  0.19549787
   0.79413553  0.31467521  0.80429941
   0.29413550  0.68532482  0.19570057
   0.49391109  0.49412158  0.25128179
   0.99391115  0.50587839  0.74871821
   0.99386273  0.50603135  0.25127925
   0.49386267  0.49396862  0.74872075
   0.49391109  0.99412161  0.75128179
   0.99391115  0.00587840  0.24871821
   0.99386273  0.00603136  0.75127925
   0.49386267  0.99396865  0.24872075
   0.01260778  0.95833236  0.03853505
   0.51260778  0.04166766  0.96146495
   0.51080625  0.03864003  0.03839277
   0.01080625  0.96135999  0.96160723
   0.01260778  0.45833233  0.53853505
   0.51260778  0.54166764  0.46146495
   0.51080625  0.53864001  0.53839277
   0.01080625  0.46135996  0.46160723
   0.10707225  0.05378142  0.15066292
   0.60707223  0.94621858  0.84933708
   0.60651914  0.94580293  0.15060853
   0.10651917  0.05419707  0.84939147
   0.10707225  0.55378142  0.65066292
   0.60707223  0.44621858  0.34933708
   0.60651914  0.44580293  0.65060853
   0.10651917  0.55419707  0.34939147
   0.78940994  0.75358867  0.54968057
   0.78940994  0.25358867  0.04968059
   0.28940997  0.24641132  0.45031940
   0.28940997  0.74641133  0.95031943
BiTiFeO                                 
           1
     5.508894    0.000000    0.000000
     0.000000    5.496244   -0.001399
     0.000000   -0.010436   40.710377
   Bi   Ti   O    Fe
  20  12  60   4
Direct configuration=     5
   0.24609326  0.23821590  0.00000795
   0.74609325  0.76178408 -0.00000795
   0.24609326  0.73821592  0.50000795
   0.74609325  0.26178411  0.49999205
   0.24921450  0.24860228  0.10347535
   0.74921445  0.75139773  0.89652470
   0.75324913  0.75255853  0.10345190
   0.25324919  0.24744149  0.89654815
   0.24921450  0.74860227  0.60347530
   0.74921445  0.25139773  0.39652464
   0.75324913  0.25255853  0.60345185
   0.25324919  0.74744147  0.39654809
   0.22472509  0.27323452  0.21922440
   0.72472509  0.72676551  0.78077557
   0.72525951  0.72627246  0.21923427
   0.22525951  0.27372757  0.78076570
   0.22472509  0.77323449  0.71922443
   0.72472509  0.22676547  0.28077557
   0.72525951  0.22627242  0.71923430
   0.22525951  0.77372754  0.28076570
   0.29617422  0.25118705  0.34836159
   0.29617422  0.75118705  0.84836159
   0.79710823  0.74909400  0.34798007
   0.79710823  0.24909401  0.84798007
   0.29710820  0.25090600  0.65201993
   0.29710820  0.75090600  0.15201993
   0.79617425  0.74881295  0.65163841
   0.79617425  0.24881296  0.15163841
   0.79241375  0.75508301  0.45093351
   0.79241375  0.25508301  0.95093354
   0.29241378  0.24491697  0.54906646
   0.29241378  0.74491699  0.04906648
   0.32047189  0.16125715  0.50029064
   0.82047189  0.83874286  0.49970936
   0.32047189  0.66125714  0.00029064
   0.82047189  0.33874286 -0.00029064
   0.60092303  0.55387002  0.05507885
   0.10092303  0.44612995  0.94492117
   0.10134843  0.44994365  0.05521549
   0.60134843  0.55005632  0.94478453
   0.60092303  0.05387003  0.55507883
   0.10092303  0.94612998  0.44492114
   0.10134843  0.94994368  0.55521547
   0.60134843  0.05005634  0.44478450
   0.32787805  0.32403057  0.40274646
   0.82787805  0.67596943  0.59725351
   0.82426504  0.67721723  0.40311510
   0.32426504  0.32278277  0.59688487
   0.32787805  0.82403057  0.90274649
   0.82787805  0.17596941  0.09725354
   0.82426504  0.17721722  0.90311513
   0.32426504  0.82278277  0.09688490
   0.52926701  0.47497120  0.13742765
   0.02926700  0.52502877  0.86257235
   0.03005694  0.52602741  0.13733795
   0.53005695  0.47397256  0.86266205
   0.52926701  0.97497123  0.63742765
   0.02926700  0.02502879  0.36257232
   0.03005694  0.02602743  0.63733795
   0.53005695  0.97397259  0.36266202
   0.29441727  0.18506391  0.30423631
   0.79441730  0.81493608  0.69576369
   0.79397462  0.81479239  0.30409912
   0.29397459  0.18520760  0.69590088
   0.29441727  0.68506392  0.80423631
   0.79441730  0.31493611  0.19576367
   0.79397462  0.31479242  0.80409912
   0.29397459  0.68520761  0.19590087
   0.49405991  0.49417114  0.25128074
   0.99405997  0.50582883  0.74871926
   0.99400266  0.50591416  0.25127876
   0.49400260  0.49408581  0.74872124
   0.49405991  0.99417117  0.75128074
   0.99405997  0.00582885  0.24871926
   0.99400266  0.00591417  0.75127876
   0.49400260  0.99408584  0.24872124
   0.01330810  0.95866510  0.03862184
   0.51330810  0.04133492  0.96137816
   0.51135717  0.03784353  0.03844521
   0.01135717  0.96215648  0.96155479
   0.01330810  0.45866507  0.53862184
   0.51330810  0.54133490  0.46137816
   0.51135717  0.53784352  0.53844521
   0.01135717  0.46215645  0.46155479
   0.10716137  0.05372526  0.15065460
   0.60716134  0.94627474  0.84934540
   0.60647683  0.94570609  0.15058089
   0.10647685  0.05429391  0.84941911
   0.10716137  0.55372526  0.65065460
   0.60716134  0.44627474  0.34934540
   0.60647683  0.44570609  0.65058089
   0.10647685  0.55429391  0.34941911
   0.78919390  0.75356544  0.54970270
   0.78919390  0.25356544  0.04970273
   0.28919393  0.24643454  0.45029727
   0.28919393  0.74643456  0.95029730
BiTiFeO                                 
           1
     5.506509    0.000000    0.000000
     0.000000    5.494050   -0.001549
     0.000000   -0.011555   40.689650
   Bi   Ti   O    Fe
  20  12  60   4
Direct configuration=     6
   0.24628324  0.23831708  0.00000153
   0.74628323  0.76168290 -0.00000153
   0.24628324  0.73831710  0.50000153
   0.74628323  0.26168293  0.49999847
   0.24908726  0.24864084  0.10341531
   0.74908720  0.75135918  0.89658474
   0.75331538  0.75248463  0.10339356
   0.25331544  0.24751539  0.89660648
   0.24908726  0.74864082  0.60341526
   0.74908720  0.25135918  0.39658468
   0.75331538  0.25248463  0.60339352
   0.25331544  0.74751537  0.39660642
   0.22488183  0.27301236  0.21919472
   0.72488183  0.72698767  0.78080525
   0.72556654  0.72637831  0.21920920
   0.22556654  0.27362172  0.78079077
   0.22488183  0.77301233  0.71919475
   0.72488183  0.22698763  0.28080525
   0.72556654  0.22637826  0.71920923
   0.22556654  0.77362169  0.28079077
   0.29602118  0.25082743  0.34817698
   0.29602118  0.75082743  0.84817698
   0.79707761  0.74935605  0.34783802
   0.79707761  0.24935606  0.84783802
   0.29707758  0.25064395  0.65216198
   0.29707758  0.75064395  0.15216198
   0.79602121  0.74917257  0.65182302
   0.79602121  0.24917259  0.15182302
   0.79240131  0.75497766  0.45095468
   0.79240131  0.25497766  0.95095471
   0.29240134  0.24502232  0.54904529
   0.29240134  0.74502234  0.04904531
   0.32075509  0.16174872  0.50026151
   0.82075509  0.83825129  0.49973849
   0.32075509  0.66174871  0.00026151
   0.82075509  0.33825129 -0.00026151
   0.60100510  0.55369413  0.05498920
   0.10100510  0.44630584  0.94501082
   0.10097346  0.45002995  0.05514233
   0.60097346  0.54997002  0.94485769
   0.60100510  0.05369414  0.55498918
   0.10100510  0.94630587  0.44501079
   0.10097346  0.95002998  0.55514231
   0.60097346  0.04997004  0.44485766
   0.32779120  0.32380832  0.40275788
   0.82779120  0.67619168  0.59724209
   0.82384908  0.67749572  0.40314638
   0.32384908  0.32250428  0.59685359
   0.32779120  0.82380832  0.90275791
   0.82779120  0.17619167  0.09724212
   0.82384908  0.17749571  0.90314641
   0.32384908  0.82250428  0.09685362
   0.52909460  0.47493362  0.13737919
   0.02909459  0.52506635  0.86262081
   0.02983211  0.52611132  0.13728374
   0.52983212  0.47388865  0.86271626
   0.52909460  0.97493365  0.63737919
   0.02909459  0.02506637  0.36262078
   0.02983211  0.02611133  0.63728374
   0.52983212  0.97388868  0.36271623
   0.29433405  0.18545404  0.30438313
   0.79433408  0.81454595  0.69561687
   0.79379393  0.81440437  0.30418228
   0.29379390  0.18559562  0.69581772
   0.29433405  0.68545405  0.80438313
   0.79433408  0.31454598  0.19561685
   0.79379393  0.31440440  0.80418228
   0.29379390  0.68559563  0.19581770
   0.49411664  0.49424917  0.25128720
   0.99411670  0.50575080  0.74871280
   0.99405837  0.50584402  0.25128558
   0.49405832  0.49415595  0.74871442
   0.49411664  0.99424920  0.75128720
   0.99411670  0.00575082  0.24871280
   0.99405837  0.00584404  0.75128558
   0.49405832  0.99415598  0.24871442
   0.01357964  0.95911923  0.03868526
   0.51357964  0.04088079  0.96131474
   0.51191349  0.03743622  0.03848489
   0.01191349  0.96256380  0.96151511
   0.01357964  0.45911920  0.53868526
   0.51357964  0.54088077  0.46131474
   0.51191349  0.53743620  0.53848489
   0.01191349  0.46256377  0.46151511
   0.10715926  0.05387495  0.15060375
   0.60715923  0.94612505  0.84939625
   0.60653007  0.94558819  0.15051231
   0.10653009  0.05441181  0.84948769
   0.10715926  0.55387495  0.65060375
   0.60715923  0.44612505  0.34939625
   0.60653007  0.44558819  0.65051231
   0.10653009  0.55441181  0.34948769
   0.78897947  0.75346910  0.54968218
   0.78897947  0.25346910  0.04968221
   0.28897950  0.24653088  0.45031779
   0.28897950  0.74653090  0.95031782
BiTiFeO                                 
           1
     5.507883    0.000000    0.000000
     0.000000    5.495528   -0.001536
     0.000000   -0.011466   40.703067
   Bi   Ti   O    Fe
  20  12  60   4
Direct configuration=     7
   0.24643801  0.23847981 -0.00001068
   0.74643799  0.76152018  0.00001068
   0.24643801  0.73847982  0.49998932
   0.74643799  0.26152021  0.50001068
   0.24867070  0.24855337  0.10334656
   0.74867065  0.75144665  0.89665348
   0.75316758  0.75252103  0.10332746
   0.25316764  0.24747899  0.89667259
   0.24867070  0.74855335  0.60334652
   0.74867065  0.25144665  0.39665342
   0.75316758  0.25252103  0.60332741
   0.25316764  0.74747897  0.39667253
   0.22502514  0.27285806  0.21919996
   0.72502514  0.72714197  0.78080001
   0.72583959  0.72643056  0.21922362
   0.22583959  0.27356947  0.78077635
   0.22502514  0.77285803  0.71919999
   0.72502514  0.22714192  0.28080001
   0.72583959  0.22643052  0.71922365
   0.22583959  0.77356944  0.28077635
   0.29585161  0.25077604  0.34818977
   0.29585161  0.75077604  0.84818977
   0.79703994  0.74936136  0.34784686
   0.79703994  0.24936138  0.84784686
   0.29703991  0.25063864  0.65215314
   0.29703991  0.75063864  0.15215314
   0.79585164  0.74922396  0.65181023
   0.79585164  0.24922398  0.15181023
   0.79239358  0.75483387  0.45098421
   0.79239358  0.25483387  0.95098424
   0.29239361  0.24516611  0.54901576
   0.29239361  0.74516613  0.04901578
   0.32114997  0.16228957  0.50023468
   0.82114997  0.83771044  0.49976532
   0.32114997  0.66228956  0.00023468
   0.82114997  0.33771044 -0.00023468
   0.60101737  0.55353607  0.05488211
   0.10101737  0.44646390  0.94511790
   0.10067860  0.45022551  0.05505393
   0.60067860  0.54977446  0.94494609
   0.60101737  0.05353608  0.55488210
   0.10101737  0.94646393  0.44511787
   0.10067860  0.95022554  0.55505391
   0.60067860  0.04977448  0.44494606
   0.32775062  0.32360496  0.40276593
   0.82775062  0.67639504  0.59723404
   0.82343447  0.67777807  0.40317687
   0.32343447  0.32222193  0.59682310
   0.32775062  0.82360496  0.90276596
   0.82775062  0.17639503  0.09723407
   0.82343447  0.17777805  0.90317690
   0.32343447  0.82222193  0.09682313
   0.52890671  0.47488753  0.13734125
   0.02890670  0.52511244  0.86265875
   0.02960782  0.52623286  0.13724028
   0.52960783  0.47376711  0.86275972
   0.52890671  0.97488756  0.63734125
   0.02890670  0.02511246  0.36265872
   0.02960782  0.02623288  0.63724028
   0.52960783  0.97376714  0.36275969
   0.29424182  0.18564152  0.30441127
   0.79424185  0.81435847  0.69558873
   0.79358390  0.81414378  0.30418473
   0.29358387  0.18585621  0.69581527
   0.29424182  0.68564153  0.80441127
   0.79424185  0.31435850  0.19558872
   0.79358390  0.31414381  0.80418473
   0.29358387  0.68585622  0.19581526
   0.49425488  0.49433808  0.25128737
   0.99425494  0.50566189  0.74871263
   0.99420865  0.50572916  0.25128746
   0.49420859  0.49427081  0.74871254
   0.49425488  0.99433811  0.75128737
   0.99425494  0.00566191  0.24871263
   0.99420865  0.00572918  0.75128746
   0.49420859  0.99427084  0.24871254
   0.01404171  0.95957260  0.03874209
   0.51404171  0.04042741  0.96125791
   0.51253217  0.03690242  0.03851365
   0.01253217  0.96309759  0.96148635
   0.01404171  0.45957257  0.53874209
   0.51404171  0.54042740  0.46125791
   0.51253217  0.53690241  0.53851365
   0.01253217  0.46309756  0.46148635
   0.10717302  0.05398699  0.15055884
   0.60717300  0.94601301  0.84944116
   0.60656784  0.94550783  0.15044457
   0.10656787  0.05449217  0.84955543
   0.10717302  0.55398699  0.65055884
   0.60717300  0.44601301  0.34944116
   0.60656784  0.44550783  0.65044457
   0.10656787  0.55449217  0.34955543
   0.78882420  0.75333924  0.54965518
   0.78882420  0.25333924  0.04965521
   0.28882423  0.24666074  0.45034479
   0.28882423  0.74666076  0.95034482
BiTiFeO                                 
           1
     5.507707    0.000000    0.000000
     0.000000    5.495346   -0.001536
     0.000000   -0.011479   40.699472
   Bi   Ti   O    Fe
  20  12  60   4
Direct configuration=     8
   0.24650296  0.23857207 -0.00001593
   0.74650295  0.76142792  0.00001593
   0.24650296  0.73857208  0.49998407
   0.74650295  0.26142795  0.50001593
   0.24854113  0.24853810  0.10331765
   0.74854107  0.75146192  0.89668240
   0.75313898  0.75251621  0.10330002
   0.25313904  0.24748380  0.89670002
   0.24854113  0.74853808  0.60331760
   0.74854107  0.25146192  0.39668234
   0.75313898  0.25251621  0.60329998
   0.25313904  0.74748379  0.39669996
   0.22511369  0.27278987  0.21918609
   0.72511369  0.72721016  0.78081388
   0.72597015  0.72646712  0.21921403
   0.22597015  0.27353291  0.78078594
   0.22511369  0.77278984  0.71918612
   0.72511369  0.22721011  0.28081388
   0.72597015  0.22646708  0.71921406
   0.22597015  0.77353288  0.28078594
   0.29579904  0.25076623  0.34822093
   0.29579904  0.75076623  0.84822093
   0.79699883  0.74935877  0.34786773
   0.79699883  0.24935878  0.84786773
   0.29699880  0.25064123  0.65213227
   0.29699880  0.75064123  0.15213227
   0.79579907  0.74923377  0.65177907
   0.79579907  0.24923379  0.15177907
   0.79238331  0.75482236  0.45099191
   0.79238331  0.25482236  0.95099194
   0.29238334  0.24517762  0.54900806
   0.29238334  0.74517764  0.04900808
   0.32126366  0.16246948  0.50022644
   0.82126366  0.83753053  0.49977356
   0.32126366  0.66246947  0.00022644
   0.82126366  0.33753053 -0.00022644
   0.60099610  0.55349541  0.05484465
   0.10099610  0.44650456  0.94515536
   0.10061040  0.45030250  0.05502185
   0.60061040  0.54969747  0.94497816
   0.60099610  0.05349542  0.55484464
   0.10099610  0.94650459  0.44515533
   0.10061040  0.95030253  0.55502184
   0.60061040  0.04969748  0.44497813
   0.32771945  0.32353558  0.40276779
   0.82771945  0.67646442  0.59723218
   0.82330481  0.67787817  0.40318309
   0.32330481  0.32212183  0.59681688
   0.32771945  0.82353558  0.90276782
   0.82771945  0.17646441  0.09723221
   0.82330481  0.17787816  0.90318312
   0.32330481  0.82212183  0.09681691
   0.52882057  0.47487384  0.13732876
   0.02882056  0.52512613  0.86267124
   0.02952316  0.52628733  0.13722662
   0.52952317  0.47371264  0.86277338
   0.52882057  0.97487387  0.63732876
   0.02882056  0.02512614  0.36267121
   0.02952316  0.02628735  0.63722662
   0.52952317  0.97371267  0.36277335
   0.29419554  0.18567930  0.30439364
   0.79419557  0.81432068  0.69560636
   0.79350179  0.81406626  0.30416974
   0.29350176  0.18593372  0.69583026
   0.29419554  0.68567932  0.80439364
   0.79419557  0.31432071  0.19560635
   0.79350179  0.31406629  0.80416974
   0.29350176  0.68593374  0.19583025