BiTiFeO                                 
           1
     5.493462   -0.000962   -0.001501
    -0.000961    5.476215   -0.001166
    -0.011113   -0.008651   40.402683
   Bi   Ti   O    Fe
  20  12  60   4
Direct configuration=     1
   0.24484409  0.23757862  0.00000000
   0.74484408  0.76242137  0.00000000
   0.24484409  0.73757863  0.50000000
   0.74484408  0.26242140  0.50000000
   0.25198972  0.24830766  0.10393570
   0.75198966  0.75169236  0.89606434
   0.75198966  0.75169236  0.10393570
   0.25198972  0.24830766  0.89606434
   0.25198972  0.74830764  0.60393566
   0.75198966  0.25169236  0.39606428
   0.75198966  0.25169236  0.60393566
   0.25198972  0.74830764  0.39606428
   0.22412699  0.27433315  0.21935007
   0.72412699  0.72566688  0.78064990
   0.72412699  0.72566688  0.21935007
   0.22412699  0.27433315  0.78064990
   0.22412699  0.77433312  0.71935010
   0.72412699  0.22566684  0.28064990
   0.72412699  0.22566684  0.71935010
   0.22412699  0.77433312  0.28064990
   0.79682386  0.74890918  0.34797305
   0.79682386  0.24890919  0.84797305
   0.29682383  0.25109082  0.65202695
   0.29682383  0.75109082  0.15202695
   0.79682386  0.74890918  0.65202695
   0.79682386  0.24890919  0.15202695
   0.29357013  0.24638395  0.45064172
   0.29357013  0.74638396  0.95064175
   0.79357010  0.75361604  0.45064172
   0.79357010  0.25361604  0.95064175
   0.29357013  0.24638395  0.54935825
   0.29357013  0.74638396  0.04935827
   0.31881350  0.15770908  0.50000000
   0.81881350  0.84229094  0.50000000
   0.31881350  0.65770906  0.00000000
   0.81881350  0.34229094  0.00000000
   0.60082728  0.55501008  0.05564614
   0.10082728  0.44498989  0.94435388
   0.10082728  0.44498989  0.05564614
   0.60082728  0.55501008  0.94435388
   0.60082728  0.05501010  0.55564612
   0.10082728  0.94498992  0.44435385
   0.10082728  0.94498992  0.55564612
   0.60082728  0.05501010  0.44435385
   0.32772058  0.32494432  0.40226784
   0.82772058  0.67505568  0.59773213
   0.82772058  0.67505568  0.40226784
   0.32772058  0.32494432  0.59773213
   0.32772058  0.82494432  0.90226787
   0.82772058  0.17505567  0.09773216
   0.82772058  0.17505567  0.90226787
   0.32772058  0.82494432  0.09773216
   0.53021055  0.47461614  0.13739407
   0.03021055  0.52538383  0.86260593
   0.03021055  0.52538383  0.13739407
   0.53021055  0.47461614  0.86260593
   0.53021055  0.97461617  0.63739407
   0.03021055  0.02538385  0.36260590
   0.03021055  0.02538385  0.63739407
   0.53021055  0.97461617  0.36260590
   0.29461476  0.18484382  0.30443299
   0.79461479  0.81515616  0.69556701
   0.79461479  0.81515616  0.30443299
   0.29461476  0.18484382  0.69556701
   0.29461476  0.68484384  0.80443299
   0.79461479  0.31515619  0.19556700
   0.79461479  0.31515619  0.80443299
   0.29461476  0.68484384  0.19556700
   0.49390233  0.49391797  0.25123006
   0.99390238  0.50608200  0.74876994
   0.99390238  0.50608200  0.25123006
   0.49390233  0.49391797  0.74876994
   0.49390233  0.99391800  0.75123006
   0.99390238  0.00608201  0.24876994
   0.99390238  0.00608201  0.75123006
   0.49390233  0.99391800  0.24876994
   0.00880992  0.95784479  0.03788698
   0.50880992  0.04215522  0.96211302
   0.50880992  0.04215522  0.03788698
   0.00880992  0.95784479  0.96211302
   0.00880992  0.45784476  0.53788698
   0.50880992  0.54215521  0.46211302
   0.50880992  0.54215521  0.53788698
   0.00880992  0.45784476  0.46211302
   0.10677507  0.05355787  0.15066576
   0.60677504  0.94644213  0.84933424
   0.60677504  0.94644213  0.15066576
   0.10677507  0.05355787  0.84933424
   0.10677507  0.55355787  0.65066576
   0.60677504  0.44644213  0.34933424
   0.60677504  0.44644213  0.65066576
   0.10677507  0.55355787  0.34933424
   0.29682383  0.25109082  0.34797305
   0.29682383  0.75109082  0.84797305
   0.79357010  0.75361604  0.54935825
   0.79357010  0.25361604  0.04935827
BiTiFeO                                 
           1
     5.514078   -0.000747    0.000114
    -0.000746    5.499914   -0.002059
     0.000840   -0.015185   40.829600
   Bi   Ti   O    Fe
  20  12  60   4
Direct configuration=     2
   0.24465447  0.23816719  0.00100362
   0.74663802  0.76106582  0.00099053
   0.24465447  0.73816721  0.50100362
   0.74663802  0.26106585  0.50099053
   0.25021641  0.24881307  0.10461697
   0.75350495  0.74950051  0.89280545
   0.75338216  0.75243094  0.10460680
   0.25421648  0.25005175  0.89276956
   0.25021641  0.74881305  0.60461692
   0.75350495  0.24950051  0.39280539
   0.75338216  0.25243094  0.60460675
   0.25421648  0.75005174  0.39276950
   0.22469395  0.27299682  0.22019989
   0.72098825  0.72521262  0.78150354
   0.72505745  0.72695432  0.22009183
   0.22521040  0.27815953  0.78154502
   0.22469395  0.77299679  0.72019992
   0.72098825  0.22521257  0.28150354
   0.72505745  0.22695427  0.72009186
   0.22521040  0.77815950  0.28154502
   0.79845461  0.74776199  0.34706932
   0.79845461  0.24776201  0.84706932
   0.29704679  0.25013823  0.65322922
   0.29704679  0.75013823  0.15322922
   0.79688474  0.74931548  0.65277737
   0.79688474  0.24931549  0.15277737
   0.29262091  0.24595558  0.44865696
   0.29262091  0.74595560  0.94865699
   0.79240745  0.75526494  0.44935992
   0.79240745  0.25526494  0.94935995
   0.29345738  0.24404800  0.55048700
   0.29345738  0.74404802  0.05048702
   0.31892579  0.15970552  0.49978094
   0.81956306  0.84086727  0.49933630
   0.31892579  0.65970550 -0.00021906
   0.81956306  0.34086727 -0.00066370
   0.59836347  0.55610102  0.05488482
   0.09949336  0.44978335  0.94538020
   0.10374598  0.45056918  0.05495529
   0.59924552  0.55031436  0.94538182
   0.59836347  0.05610103  0.55488480
   0.09949336  0.94978338  0.44538017
   0.10374598  0.95056921  0.55495528
   0.59924552  0.05031438  0.44538179
   0.32503019  0.32148627  0.40502093
   0.82783801  0.67530859  0.59690666
   0.82480921  0.67860323  0.40480737
   0.32559707  0.32303309  0.59635234
   0.32503019  0.82148627  0.90502096
   0.82783801  0.17530857  0.09690669
   0.82480921  0.17860321  0.90480740
   0.32559707  0.82303309  0.09635237
   0.52913296  0.47517202  0.13710393
   0.02817170  0.52494757  0.86377642
   0.03029531  0.52584417  0.13704600
   0.53036494  0.47332242  0.86372309
   0.52913296  0.97517205  0.63710393
   0.02817170  0.02494759  0.36377639
   0.03029531  0.02584419  0.63704600
   0.53036494  0.97332245  0.36372306
   0.29628225  0.18266237  0.30404680
   0.79420773  0.81358499  0.69484201
   0.79451808  0.81491229  0.30439030
   0.29404200  0.18649622  0.69475760
   0.29628225  0.68266239  0.80404680
   0.79420773  0.31358502  0.19484200
   0.79451808  0.31491232  0.80439030
   0.29404200  0.68649623  0.19475759
   0.49432144  0.49427937  0.25076276
   0.99387890  0.50557489  0.74825772
   0.99317034  0.50603414  0.25070328
   0.49449195  0.49319539  0.74826813
   0.49432144  0.99427940  0.75076276
   0.99387890  0.00557491  0.24825772
   0.99317034  0.00603415  0.75070328
   0.49449195  0.99319542  0.24826813
   0.01231641  0.95653016  0.03777928
   0.51012097  0.04030810  0.96189250
   0.50763427  0.03873382  0.03773449
   0.01077816  0.95933064  0.96188958
   0.01231641  0.45653013  0.53777928
   0.51012097  0.54030808  0.46189250
   0.50763427  0.53873380  0.53773449
   0.01077816  0.45933061  0.46188958
   0.10770974  0.05406367  0.15029385
   0.60999581  0.94589814  0.85036741
   0.60665374  0.94514791  0.15027439
   0.10749626  0.05779091  0.85042151
   0.10770974  0.55406367  0.65029385
   0.60999581  0.44589814  0.35036741
   0.60665374  0.44514791  0.65027439
   0.10749626  0.55779091  0.35042151
   0.29574461  0.25041114  0.34681614
   0.29574461  0.75041114  0.84681614
   0.79142621  0.75415089  0.55033308
   0.79142621  0.25415089  0.05033310
BiTiFeO                                 
           1
     5.512197   -0.000722    0.003985
    -0.000722    5.499016   -0.001020
     0.029499   -0.007467   40.843236
   Bi   Ti   O    Fe
  20  12  60   4
Direct configuration=     3
   0.24466245  0.23845917  0.00095279
   0.74655230  0.76070410  0.00094733
   0.24466245  0.73845918  0.50095279
   0.74655230  0.26070413  0.50094733
   0.25036818  0.24882163  0.10434329
   0.75436767  0.74917261  0.89338837
   0.75378663  0.75248602  0.10433677
   0.25525765  0.25049326  0.89337377
   0.25036818  0.74882161  0.60434324
   0.75436767  0.24917261  0.39338831
   0.75378663  0.25248602  0.60433672
   0.25525765  0.75049324  0.39337371
   0.22505992  0.27253239  0.21999371
   0.72052292  0.72580384  0.78152130
   0.72606273  0.72732569  0.21984614
   0.22548178  0.27841948  0.78156179
   0.22505992  0.77253236  0.71999374
   0.72052292  0.22580379  0.28152130
   0.72606273  0.22732565  0.71984617
   0.22548178  0.77841945  0.28156179
   0.79809540  0.74792201  0.34769818
   0.79809540  0.24792203  0.84769818
   0.29717371  0.25114264  0.65218935
   0.29717371  0.75114264  0.15218935
   0.79667937  0.74858402  0.65192411
   0.79667937  0.24858404  0.15192411
   0.29201666  0.24580873  0.44964374
   0.29201666  0.74580874  0.94964377
   0.79185232  0.75506440  0.45012613
   0.79185232  0.25506440  0.95012616
   0.29315218  0.24488173  0.54993739
   0.29315218  0.74488175  0.04993741
   0.31909866  0.16023335  0.49983028
   0.81973084  0.84021862  0.49941789
   0.31909866  0.66023334 -0.00016972
   0.81973084  0.34021862 -0.00058211
   0.59945712  0.55549762  0.05491268
   0.09965542  0.44969381  0.94524966
   0.10295576  0.44973695  0.05501643
   0.59935675  0.55045305  0.94525743
   0.59945712  0.05549764  0.55491267
   0.09965542  0.94969384  0.44524964
   0.10295576  0.94973698  0.55501641
   0.59935675  0.05045307  0.44525740
   0.32473515  0.32237149  0.40422331
   0.82781740  0.67538530  0.59703966
   0.82445904  0.67800544  0.40415138
   0.32522365  0.32330132  0.59668729
   0.32473515  0.82237149  0.90422334
   0.82781740  0.17538528  0.09703969
   0.82445904  0.17800543  0.90415141
   0.32522365  0.82330132  0.09668732
   0.52915206  0.47516163  0.13723635
   0.02842244  0.52490116  0.86352116
   0.03028699  0.52588569  0.13716802
   0.53086328  0.47323723  0.86345691
   0.52915206  0.97516166  0.63723635
   0.02842244  0.02490118  0.36352113
   0.03028699  0.02588571  0.63716802
   0.53086328  0.97323726  0.36345688
   0.29656512  0.18188954  0.30363018
   0.79396039  0.81446635  0.69559767
   0.79427724  0.81534829  0.30386873
   0.29365418  0.18526819  0.69574995
   0.29656512  0.68188955  0.80363018
   0.79396039  0.31446638  0.19559766
   0.79427724  0.31534832  0.80386873
   0.29365418  0.68526820  0.19574993
   0.49432235  0.49406527  0.25092235
   0.99368442  0.50512651  0.74835917
   0.99304840  0.50637653  0.25085489
   0.49438385  0.49338896  0.74835994
   0.49432235  0.99406530  0.75092235
   0.99368442  0.00512652  0.24835917
   0.99304840  0.00637655  0.75085489
   0.49438385  0.99338899  0.24835994
   0.01260515  0.95710270  0.03796841
   0.51054619  0.04018547  0.96177097
   0.50853632  0.03870979  0.03790650
   0.01119041  0.95955493  0.96176188
   0.01260515  0.45710267  0.53796841
   0.51054619  0.54018546  0.46177097
   0.50853632  0.53870977  0.53790650
   0.01119041  0.45955490  0.46176188
   0.10745276  0.05387694  0.15042677
   0.60886635  0.94669420  0.85012835
   0.60646793  0.94537855  0.15039059
   0.10696673  0.05652299  0.85016608
   0.10745276  0.55387694  0.65042677
   0.60886635  0.44669420  0.35012835
   0.60646793  0.44537855  0.65039059
   0.10696673  0.55652299  0.35016608
   0.29529963  0.25045744  0.34709615
   0.29529963  0.75045744  0.84709615
   0.79066604  0.75388288  0.55008876
   0.79066604  0.25388288  0.05008878
BiTiFeO                                 
           1
     5.509565   -0.000972    0.004003
    -0.000971    5.496518   -0.001339
     0.029574   -0.009824   40.895025
   Bi   Ti   O    Fe
  20  12  60   4
Direct configuration=     4
   0.24448907  0.23891212  0.00084994
   0.74681457  0.75987545  0.00085611
   0.24448907  0.73891214  0.50084994
   0.74681457  0.25987548  0.50085611
   0.24992047  0.24908651  0.10413283
   0.75469940  0.74912629  0.89383381
   0.75407654  0.75242672  0.10413839
   0.25652245  0.25059593  0.89384919
   0.24992047  0.74908649  0.60413278
   0.75469940  0.24912629  0.39383375
   0.75407654  0.25242672  0.60413834
   0.25652245  0.75059591  0.39384913
   0.22541010  0.27255083  0.22005077
   0.71875611  0.72657848  0.78127543
   0.72787292  0.72730887  0.21983785
   0.22533967  0.27977036  0.78130370
   0.22541010  0.77255080  0.72005080
   0.71875611  0.22657843  0.28127543
   0.72787292  0.22730883  0.71983788
   0.22533967  0.77977033  0.28130370
   0.79771914  0.74962377  0.34730565
   0.79771914  0.24962378  0.84730565
   0.29725627  0.24925526  0.65313760
   0.29725627  0.74925526  0.15313760
   0.79608699  0.75032430  0.65272564
   0.79608699  0.25032432  0.15272564
   0.29199670  0.24664797  0.45001381
   0.29199670  0.74664799  0.95001384
   0.79148539  0.75432705  0.45048299
   0.79148539  0.25432705  0.95048302
   0.29297016  0.24596409  0.54931880
   0.29297016  0.74596411  0.04931882
   0.31972068  0.16167411  0.50006946
   0.82053075  0.83862109  0.49967882
   0.31972068  0.66167409  0.00006946
   0.82053075  0.33862109 -0.00032118
   0.60110514  0.55456642  0.05476974
   0.09966336  0.45018404  0.94533369
   0.10180787  0.44912377  0.05495018
   0.59927242  0.55001480  0.94535283
   0.60110514  0.05456644  0.55476973
   0.09966336  0.95018407  0.44533366
   0.10180787  0.94912380  0.55495017
   0.59927242  0.05001481  0.44535280
   0.32311830  0.32203353  0.40410926
   0.82775147  0.67573362  0.59700290
   0.82286708  0.67851886  0.40395298
   0.32403091  0.32305599  0.59678191
   0.32311830  0.82203353  0.90410929
   0.82775147  0.17573360  0.09700293
   0.82286708  0.17851885  0.90395301
   0.32403091  0.82305599  0.09678194
   0.52906431  0.47508466  0.13717311
   0.02877368  0.52474715  0.86322500
   0.02992267  0.52598004  0.13707867
   0.53173059  0.47307430  0.86314359
   0.52906431  0.97508469  0.63717311
   0.02877368  0.02474716  0.36322497
   0.02992267  0.02598006  0.63707867
   0.53173059  0.97307433  0.36314357
   0.29769366  0.18108497  0.30353774
   0.79358293  0.81269601  0.69482448
   0.79405475  0.81407659  0.30429753
   0.29303800  0.18695198  0.69501211
   0.29769366  0.68108498  0.80353774
   0.79358293  0.31269604  0.19482446
   0.79405475  0.31407662  0.80429753
   0.29303800  0.68695200  0.19501209
   0.49475863  0.49367384  0.25115740
   0.99361104  0.50433533  0.74861542
   0.99319703  0.50689296  0.25107653
   0.49463856  0.49374732  0.74858185
   0.49475863  0.99367387  0.75115740
   0.99361104  0.00433534  0.24861542
   0.99319703  0.00689298  0.75107653
   0.49463856  0.99374735  0.24858185
   0.01369585  0.95842516  0.03832279
   0.51151821  0.03955787  0.96172142
   0.51056471  0.03804299  0.03822667
   0.01220253  0.96036120  0.96170498
   0.01369585  0.45842513  0.53832279
   0.51151821  0.53955785  0.46172142
   0.51056471  0.53804297  0.53822667
   0.01220253  0.46036117  0.46170498
   0.10721331  0.05406607  0.15023933
   0.60753939  0.94735380  0.85011351
   0.60657745  0.94542499  0.15016704
   0.10657155  0.05551837  0.85013404
   0.10721331  0.55406607  0.65023933
   0.60753939  0.44735380  0.35011351
   0.60657745  0.44542499  0.65016704
   0.10657155  0.55551837  0.35013404
   0.29445069  0.24952672  0.34672491
   0.29445069  0.74952672  0.84672491
   0.78911638  0.75347735  0.54980755
   0.78911638  0.25347735  0.04980757
BiTiFeO                                 
           1
     5.506042   -0.001521    0.004136
    -0.001519    5.493262   -0.001505
     0.030526   -0.011059   40.917618
   Bi   Ti   O    Fe
  20  12  60   4
Direct configuration=     5
   0.24442285  0.23901800  0.00091595
   0.74703957  0.75968600  0.00092238
   0.24442285  0.73901801  0.50091595
   0.74703957  0.25968603  0.50092238
   0.24965260  0.24888666  0.10412806
   0.75461269  0.74928826  0.89378291
   0.75394484  0.75265097  0.10413860
   0.25648840  0.25045957  0.89379906
   0.24965260  0.74888665  0.60412802
   0.75461269  0.24928826  0.39378285
   0.75394484  0.25265097  0.60413855
   0.25648840  0.75045956  0.39379900
   0.22546900  0.27248002  0.22010372
   0.71840249  0.72679816  0.78134528
   0.72825037  0.72738930  0.21988240
   0.22540791  0.27998308  0.78137214
   0.22546900  0.77247999  0.72010375
   0.71840249  0.22679812  0.28134528
   0.72825037  0.22738926  0.71988243
   0.22540791  0.77998305  0.28137214
   0.79787676  0.74918496  0.34747022
   0.79787676  0.24918497  0.84747022
   0.29732095  0.24996906  0.65265833
   0.29732095  0.74996906  0.15265833
   0.79614345  0.74969817  0.65227712
   0.79614345  0.24969818  0.15227712
   0.29206744  0.24674160  0.44992739
   0.29206744  0.74674162  0.94992742
   0.79157612  0.75425492  0.45041007
   0.79157612  0.25425492  0.95041010
   0.29302819  0.24579968  0.54947617
   0.29302819  0.74579970  0.04947620
   0.31983556  0.16195287  0.50004570
   0.82069503  0.83830440  0.49967205
   0.31983556  0.66195286  0.00004570
   0.82069503  0.33830440 -0.00032795
   0.60109462  0.55465825  0.05468088
   0.09961874  0.45035362  0.94539072
   0.10189477  0.44932253  0.05486739
   0.59917610  0.54988860  0.94541265
   0.60109462  0.05465826  0.55468087
   0.09961874  0.95035365  0.44539069
   0.10189477  0.94932256  0.55486738
   0.59917610  0.04988862  0.44541262
   0.32279987  0.32179548  0.40422276
   0.82774199  0.67579422  0.59694513
   0.82256204  0.67875637  0.40405483
   0.32383727  0.32285575  0.59666113
   0.32279987  0.82179548  0.90422279
   0.82774199  0.17579421  0.09694516
   0.82256204  0.17875635  0.90405486
   0.32383727  0.82285575  0.09666116
   0.52901519  0.47507687  0.13720763
   0.02885885  0.52478284  0.86319853
   0.02984508  0.52603297  0.13710973
   0.53163725  0.47320622  0.86311932
   0.52901519  0.97507690  0.63720763
   0.02885885  0.02478286  0.36319850
   0.02984508  0.02603299  0.63710973
   0.53163725  0.97320625  0.36311929
   0.29798958  0.18076419  0.30342638
   0.79343882  0.81315096  0.69519963
   0.79398479  0.81420571  0.30413951
   0.29280987  0.18642510  0.69543063
   0.29798958  0.68076421  0.80342638
   0.79343882  0.31315099  0.19519961
   0.79398479  0.31420574  0.80413951
   0.29280987  0.68642511  0.19543062
   0.49481109  0.49378585  0.25112495
   0.99354154  0.50432056  0.74858752
   0.99315777  0.50685509  0.25104726
   0.49473465  0.49363628  0.74853839
   0.49481109  0.99378588  0.75112495
   0.99354154  0.00432057  0.24858752
   0.99315777  0.00685511  0.75104726
   0.49473465  0.99363631  0.24853839
   0.01383149  0.95862109  0.03831501
   0.51169408  0.03934147  0.96172247
   0.51075947  0.03783413  0.03821595
   0.01242906  0.96057591  0.96170770
   0.01383149  0.45862106  0.53831501
   0.51169408  0.53934145  0.46172247
   0.51075947  0.53783412  0.53821595
   0.01242906  0.46057588  0.46170770
   0.10720730  0.05406382  0.15024862
   0.60740111  0.94731099  0.85014529
   0.60658880  0.94539631  0.15016870
   0.10661987  0.05552549  0.85016740
   0.10720730  0.55406382  0.65024862
   0.60740111  0.44731099  0.35014529
   0.60658880  0.44539631  0.65016870
   0.10661987  0.55552549  0.35016740
   0.29440385  0.24963013  0.34673623
   0.29440385  0.74963013  0.84673623
   0.78908076  0.75348737  0.54988003
   0.78908076  0.25348737  0.04988005
BiTiFeO                                 
           1
     5.505761   -0.001555    0.004104
    -0.001552    5.493066   -0.001699
     0.030261   -0.012489   40.954092
   Bi   Ti   O    Fe
  20  12  60   4
Direct configuration=     6
   0.24420868  0.23952084  0.00105382
   0.74768917  0.75888123  0.00106484
   0.24420868  0.73952085  0.50105382
   0.74768917  0.25888126  0.50106484
   0.24890231  0.24864265  0.10403291
   0.75437883  0.74950051  0.89365846
   0.75381760  0.75298609  0.10406103
   0.25667559  0.25029538  0.89368524
   0.24890231  0.74864264  0.60403287
   0.75437883  0.24950051  0.39365840
   0.75381760  0.25298609  0.60406099
   0.25667559  0.75029537  0.39368518
   0.22567456  0.27257496  0.22022339
   0.71720579  0.72762298  0.78143255
   0.72965899  0.72738799  0.21998098
   0.22553637  0.28060508  0.78144565
   0.22567456  0.77257493  0.72022342
   0.71720579  0.22762294  0.28143255
   0.72965899  0.22738795  0.71998101
   0.22553637  0.78060505  0.28144565
   0.79818046  0.74878141  0.34747376
   0.79818046  0.24878142  0.84747376
   0.29723426  0.24988516  0.65269039
   0.29723426  0.74988516  0.15269039
   0.79605594  0.74987450  0.65224658
   0.79605594  0.24987452  0.15224658
   0.29234386  0.24703327  0.44986721
   0.29234386  0.74703329  0.94986724
   0.79183833  0.75401527  0.45034560
   0.79183833  0.25401527  0.95034563
   0.29312676  0.24553182  0.54961623
   0.29312676  0.74553183  0.04961625
   0.32030631  0.16309623  0.50007096
   0.82135797  0.83705089  0.49971092
   0.32030631  0.66309621  0.00007096
   0.82135797  0.33705089 -0.00028908
   0.60136343  0.55490542  0.05442832
   0.09941589  0.45074313  0.94558201
   0.10198705  0.44966206  0.05464654
   0.59897825  0.54947710  0.94561392
   0.60136343  0.05490543  0.55442831
   0.09941589  0.95074316  0.44558198
   0.10198705  0.94966209  0.55464653
   0.59897825  0.04947711  0.44561389
   0.32157693  0.32116726  0.40446532
   0.82763855  0.67608102  0.59684624
   0.82134694  0.67951058  0.40426298
   0.32301211  0.32221815  0.59644949
   0.32157693  0.82116726  0.90446535
   0.82763855  0.17608101  0.09684627
   0.82134694  0.17951057  0.90426301
   0.32301211  0.82221815  0.09644952
   0.52869651  0.47504032  0.13719900
   0.02912869  0.52492294  0.86311783
   0.02948588  0.52629898  0.13708587
   0.53128566  0.47363424  0.86304447
   0.52869651  0.97504035  0.63719900
   0.02912869  0.02492296  0.36311780
   0.02948588  0.02629900  0.63708587
   0.53128566  0.97363427  0.36304444
   0.29905322  0.18011875  0.30323704
   0.79302375  0.81264338  0.69517941
   0.79373448  0.81374263  0.30409228
   0.29211051  0.18686566  0.69542962
   0.29905322  0.68011877  0.80323704
   0.79302375  0.31264341  0.19517940
   0.79373448  0.31374266  0.80409228
   0.29211051  0.68686568  0.19542960
   0.49505822  0.49406047  0.25111488
   0.99334087  0.50419380  0.74861930
   0.99315938  0.50679751  0.25105534
   0.49507016  0.49343128  0.74850785
   0.49505822  0.99406050  0.75111488
   0.99334087  0.00419381  0.24861930
   0.99315938  0.00679752  0.75105534
   0.49507016  0.99343131  0.24850785
   0.01453572  0.95941116  0.03839123
   0.51246699  0.03861972  0.96172824
   0.51168821  0.03707190  0.03827671
   0.01322528  0.96145308  0.96171874
   0.01453572  0.45941113  0.53839123
   0.51246699  0.53861971  0.46172824
   0.51168821  0.53707188  0.53827671
   0.01322528  0.46145305  0.46171874
   0.10721419  0.05408747  0.15011978
   0.60667137  0.94722609  0.85031554
   0.60659755  0.94522552  0.15001058
   0.10672070  0.05529102  0.85033449
   0.10721419  0.55408747  0.65011978
   0.60667137  0.44722609  0.35031554
   0.60659755  0.44522552  0.65001058
   0.10672070  0.55529102  0.35033449
   0.29423222  0.24945195  0.34653319
   0.29423222  0.74945195  0.84653319
   0.78878941  0.75336105  0.54993318
   0.78878941  0.25336105  0.04993321
BiTiFeO                                 
           1
     5.506508   -0.001520    0.004766
    -0.001518    5.494245   -0.001395
     0.035182   -0.010228   40.962055
   Bi   Ti   O    Fe
  20  12  60   4
Direct configuration=     7
   0.24421471  0.23947841  0.00106438
   0.74768173  0.75894138  0.00107445
   0.24421471  0.73947842  0.50106438
   0.74768173  0.25894141  0.50107445
   0.24891349  0.24857160  0.10404670
   0.75439806  0.74954981  0.89366069
   0.75377447  0.75305239  0.10407390
   0.25662395  0.25025494  0.89368568
   0.24891349  0.74857158  0.60404666
   0.75439806  0.24954981  0.39366063
   0.75377447  0.25305239  0.60407386
   0.25662395  0.75025492  0.39368562
   0.22566985  0.27250153  0.22022475
   0.71725877  0.72758601  0.78145981
   0.72958422  0.72744323  0.21998139
   0.22555853  0.28059126  0.78147540
   0.22566985  0.77250150  0.72022478
   0.71725877  0.22758597  0.28145981
   0.72958422  0.22744318  0.71998142
   0.22555853  0.78059123  0.28147540
   0.79821295  0.74857517  0.34759391
   0.79821295  0.24857518  0.84759391
   0.29729303  0.25038104  0.65235937
   0.29729303  0.75038104  0.15235937
   0.79611312  0.74942050  0.65195355
   0.79611312  0.24942052  0.15195355
   0.29231114  0.24701234  0.44984367
   0.29231114  0.74701235  0.94984370
   0.79182903  0.75402826  0.45032614
   0.79182903  0.25402826  0.95032617
   0.29313385  0.24548688  0.54967858
   0.29313385  0.74548689  0.04967860
   0.32027065  0.16301332  0.50004925
   0.82130766  0.83713357  0.49969723
   0.32027065  0.66301330  0.00004925
   0.82130766  0.33713357 -0.00030277
   0.60130169  0.55490357  0.05443116
   0.09943459  0.45075717  0.94557157
   0.10201534  0.44970322  0.05464608
   0.59896272  0.54949600  0.94560309
   0.60130169  0.05490359  0.55443115
   0.09943459  0.95075720  0.44557155
   0.10201534  0.94970325  0.55464606
   0.59896272  0.04949602  0.44560306
   0.32165845  0.32117978  0.40446639
   0.82765484  0.67605228  0.59683541
   0.82143448  0.67947349  0.40426974
   0.32307795  0.32224368  0.59642708
   0.32165845  0.82117978  0.90446642
   0.82765484  0.17605227  0.09683544
   0.82143448  0.17947348  0.90426977
   0.32307795  0.82224368  0.09642711
   0.52873999  0.47504512  0.13722593
   0.02912724  0.52491727  0.86311753
   0.02952264  0.52627261  0.13711408
   0.53130488  0.47362488  0.86304409
   0.52873999  0.97504515  0.63722593
   0.02912724  0.02491729  0.36311750
   0.02952264  0.02627263  0.63711408
   0.53130488  0.97362491  0.36304406
   0.29899367  0.18004819  0.30320098
   0.79302535  0.81307055  0.69543674
   0.79374294  0.81395411  0.30398680
   0.29212550  0.18640293  0.69571403
   0.29899367  0.68004820  0.80320098
   0.79302535  0.31307058  0.19543673
   0.79374294  0.31395414  0.80398680
   0.29212550  0.68640295  0.19571402
   0.49503187  0.49406671  0.25109835
   0.99333636  0.50420878  0.74859431
   0.99312836  0.50679042  0.25103638
   0.49504963  0.49340785  0.74848741
   0.49503187  0.99406674  0.75109835
   0.99333636  0.00420879  0.24859431
   0.99312836  0.00679044  0.75103638
   0.49504963  0.99340788  0.24848741
   0.01445685  0.95935755  0.03836998
   0.51240130  0.03864809  0.96172523
   0.51160232  0.03711665  0.03825704
   0.01318586  0.96138930  0.96171548
   0.01445685  0.45935752  0.53836998
   0.51240130  0.53864808  0.46172523
   0.51160232  0.53711664  0.53825704
   0.01318586  0.46138927  0.46171548
   0.10720631  0.05407361  0.15015922
   0.60673709  0.94722288  0.85029274
   0.60659741  0.94524930  0.15005185
   0.10672594  0.05533383  0.85031329
   0.10720631  0.55407361  0.65015922
   0.60673709  0.44722288  0.35029274
   0.60659741  0.44524930  0.65005185
   0.10672594  0.55533383  0.35031329
   0.29423941  0.24957034  0.34659450
   0.29423941  0.74957034  0.84659450
   0.78882967  0.75339808  0.54996459
   0.78882967  0.25339808  0.04996461
BiTiFeO                                 
           1
     5.503527   -0.001670    0.004910
    -0.001668    5.490991   -0.001593
     0.036231   -0.011698   40.966370
   Bi   Ti   O    Fe
  20  12  60   4
Direct configuration=     8
   0.24417225  0.23986234  0.00109538
   0.74797358  0.75832991  0.00111703
   0.24417225  0.73986236  0.50109538
   0.74797358  0.25832994  0.50111703
   0.24840925  0.24858389  0.10392561
   0.75417984  0.74935178  0.89376363
   0.75373977  0.75307074  0.10396780
   0.25700884  0.25041307  0.89380556
   0.24840925  0.74858388  0.60392557
   0.75417984  0.24935178  0.39376357
   0.75373977  0.25307074  0.60396775
   0.25700884  0.75041305  0.39380550
   0.22587153  0.27257752  0.22023505
   0.71646479  0.72807946  0.78143294
   0.73072820  0.72750008  0.21998562
   0.22559831  0.28094737  0.78142648
   0.22587153  0.77257749  0.72023508
   0.71646479  0.22807941  0.28143294
   0.73072820  0.22750004  0.71998565
   0.22559831  0.78094734  0.28142648
   0.79799988  0.74923227  0.34738378
   0.79799988  0.24923229  0.84738378
   0.29719058  0.24960930  0.65274947
   0.29719058  0.74960930  0.15274947
   0.79584079  0.75019459  0.65228347
   0.79584079  0.25019460  0.15228347
   0.29250522  0.24723943  0.45012392
   0.29250522  0.74723945  0.95012395
   0.79185840  0.75380978  0.45056228
   0.79185840  0.25380978  0.95056231
   0.29318829  0.24594855  0.54943092
   0.29318829  0.74594857  0.04943094
   0.32064153  0.16389629  0.50012432
   0.82184498  0.83617204  0.49976192
   0.32064153  0.66389627  0.00012432
   0.82184498  0.33617204 -0.00023808
   0.60187578  0.55497773  0.05429939
   0.09937608  0.45080643  0.94566417
   0.10186002  0.44944497  0.05454419
   0.59903648  0.54932080  0.94570032
   0.60187578  0.05497774  0.55429937
   0.09937608  0.95080646  0.44566414
   0.10186002  0.94944500  0.55454418
   0.59903648  0.04932082  0.44570029
   0.32084561  0.32109199  0.40439256
   0.82758762  0.67632100  0.59684906
   0.82055885  0.67979061  0.40415206
   0.32244916  0.32189441  0.59647254
   0.32084561  0.82109199  0.90439259
   0.82758762  0.17632099  0.09684909
   0.82055885  0.17979060  0.90415209
   0.32244916  0.82189441  0.09647257
   0.52836855  0.47497918  0.13717403
   0.02919357  0.52491990  0.86300456
   0.02916937  0.52650694  0.13704840
   0.53121225  0.47374746  0.86293657
   0.52836855  0.97497921  0.63717403
   0.02919357  0.02491992  0.36300453
   0.02916937  0.02650695  0.63704840
   0.53121225  0.97374749  0.36293654
   0.29982958  0.17998432  0.30313985
   0.79273106  0.81213291  0.69511871
   0.79356190  0.81304632  0.30419071
   0.29150111  0.18727997  0.69540719
   0.29982958  0.67998434  0.80313985
   0.79273106  0.31213294  0.19511869
   0.79356190  0.31304635  0.80419071
   0.29150111  0.68727998  0.19540718