BiTiFeO                                 
           1
    11.106713   -0.000563    0.000218
    -0.000285    5.548516    0.000695
     0.000801    0.068159   40.554309
   Bi   Ti   O    Fe
  40  24 120   8
Direct configuration=     1
   0.12581734  0.24552768  0.10456018
   0.62581736  0.24552768  0.10456018
   0.11884221  0.27533320  0.21951799
   0.61884218  0.27533320  0.21951799
   0.12581734  0.74552768  0.60456020
   0.62581736  0.74552768  0.60456020
   0.11884221  0.77533323  0.71951795
   0.61884218  0.77533323  0.71951795
   0.37581733  0.75447232  0.89543980
   0.87581730  0.75447232  0.89543980
   0.36884218  0.72466677  0.78048205
   0.86884218  0.72466677  0.78048205
   0.37581733  0.25447232  0.39543983
   0.87581730  0.25447232  0.39543983
   0.36884218  0.22466679  0.28048199
   0.86884218  0.22466679  0.28048199
   0.37389028  0.75425547  0.10488448
   0.87389028  0.75425547  0.10488448
   0.36734301  0.72707325  0.21940872
   0.86734301  0.72707325  0.21940872
   0.37389028  0.25425550  0.60488451
   0.87389028  0.25425550  0.60488451
   0.36734301  0.22707324  0.71940875
   0.86734301  0.22707324  0.71940875
   0.12389029  0.24574450  0.89511549
   0.62389028  0.24574450  0.89511549
   0.11734302  0.27292678  0.78059125
   0.61734301  0.27292678  0.78059125
   0.12389029  0.74574453  0.39511553
   0.62389028  0.74574453  0.39511553
   0.11734302  0.77292675  0.28059128
   0.61734301  0.77292675  0.28059128
   0.12124083  0.24192810  0.00106251
   0.62124085  0.24192810  0.00106251
   0.12124083  0.74192810  0.50106251
   0.62124085  0.74192810  0.50106251
   0.37124082  0.75807190  0.99893749
   0.87124085  0.75807190  0.99893749
   0.37124082  0.25807190  0.49893743
   0.87124085  0.25807190  0.49893743
   0.39737403  0.74971396  0.34751427
   0.89737403  0.74971396  0.34751427
   0.39737403  0.24971396  0.84751427
   0.89737403  0.24971396  0.84751427
   0.39778417  0.74996662  0.65309596
   0.89778417  0.74996662  0.65309596
   0.39778417  0.24996664  0.15309598
   0.89778417  0.24996664  0.15309598
   0.39509413  0.75150693  0.45036468
   0.89509416  0.75150693  0.45036468
   0.39509413  0.25150693  0.95036465
   0.89509416  0.25150693  0.95036465
   0.14509413  0.24849309  0.54963535
   0.64509416  0.24849309  0.54963535
   0.14509413  0.74849307  0.04963534
   0.64509416  0.74849307  0.04963534
   0.14572605  0.24496144  0.45021892
   0.64572608  0.24496144  0.45021892
   0.14572605  0.74496144  0.95021892
   0.64572608  0.74496144  0.95021892
   0.39572605  0.75503856  0.54978108
   0.89572608  0.75503856  0.54978108
   0.39572605  0.25503856  0.04978108
   0.89572608  0.25503856  0.04978108
   0.30398616  0.55333757  0.05623510
   0.80398619  0.55333757  0.05623510
   0.16037145  0.32244712  0.40269166
   0.66037142  0.32244712  0.40269166
   0.26384732  0.47232899  0.13806446
   0.76384735  0.47232899  0.13806446
   0.14598581  0.18621907  0.30358261
   0.64598584  0.18621907  0.30358261
   0.25139269  0.49499974  0.25136027
   0.75139272  0.49499974  0.25136027
   0.00183105  0.96418035  0.03809405
   0.50183105  0.96418035  0.03809405
   0.05208983  0.05360783  0.15095773
   0.55208981  0.05360783  0.15095773
   0.30398616  0.05333758  0.55623508
   0.80398619  0.05333758  0.55623508
   0.16037145  0.82244712  0.90269166
   0.66037142  0.82244712  0.90269166
   0.26384732  0.97232902  0.63806444
   0.76384735  0.97232902  0.63806444
   0.14598581  0.68621904  0.80358261
   0.64598584  0.68621904  0.80358261
   0.25139269  0.99499977  0.75136030
   0.75139272  0.99499977  0.75136030
   0.00183105  0.46418038  0.53809404
   0.50183105  0.46418038  0.53809404
   0.05208983  0.55360788  0.65095776
   0.55208981  0.55360788  0.65095776
   0.05398618  0.44666240  0.94376492
   0.55398619  0.44666240  0.94376492
   0.41037145  0.67755288  0.59730834
   0.91037142  0.67755288  0.59730834
   0.01384731  0.52767098  0.86193556
   0.51384729  0.52767098  0.86193556
   0.39598584  0.81378096  0.69641739
   0.89598584  0.81378096  0.69641739
   0.00139270  0.50500023  0.74863970
   0.50139272  0.50500023  0.74863970
   0.25183105  0.03581963  0.96190596
   0.75183105  0.03581963  0.96190596
   0.30208984  0.94639212  0.84904224
   0.80208981  0.94639212  0.84904224
   0.05398618  0.94666243  0.44376490
   0.55398619  0.94666243  0.44376490
   0.41037145  0.17755288  0.09730835
   0.91037142  0.17755288  0.09730835
   0.01384731  0.02767100  0.36193556
   0.51384729  0.02767100  0.36193556
   0.39598584  0.31378096  0.19641739
   0.89598584  0.31378096  0.19641739
   0.00139270  0.00500026  0.24863972
   0.50139272  0.00500026  0.24863972
   0.25183105  0.53581965  0.46190593
   0.75183105  0.53581965  0.46190593
   0.30208984  0.44639218  0.34904227
   0.80208981  0.44639218  0.34904227
   0.05373246  0.42657372  0.05429961
   0.55373246  0.42657372  0.05429961
   0.41462371  0.67528647  0.40033671
   0.91462374  0.67528647  0.40033671
   0.01342812  0.52419931  0.13827106
   0.51342809  0.52419931  0.13827106
   0.39733556  0.81472349  0.30391791
   0.89733553  0.81472349  0.30391791
   0.00137807  0.50483209  0.25127208
   0.50137806  0.50483209  0.25127208
   0.25423092  0.05460011  0.03958693
   0.75423092  0.05460011  0.03958693
   0.30389983  0.94555801  0.15167758
   0.80389983  0.94555801  0.15167758
   0.05373246  0.92657369  0.55429965
   0.55373246  0.92657369  0.55429965
   0.41462371  0.17528649  0.90033674
   0.91462374  0.17528649  0.90033674
   0.01342812  0.02419928  0.63827103
   0.51342809  0.02419928  0.63827103
   0.39733556  0.31472352  0.80391788
   0.89733553  0.31472352  0.80391788
   0.00137807  0.00483209  0.75127208
   0.50137806  0.00483209  0.75127208
   0.25423092  0.55460012  0.53958690
   0.75423092  0.55460012  0.53958690
   0.30389983  0.44555801  0.65167761
   0.80389983  0.44555801  0.65167761
   0.30373246  0.57342631  0.94570035
   0.80373246  0.57342631  0.94570035
   0.16462369  0.32471353  0.59966326
   0.66462368  0.32471353  0.59966326
   0.26342809  0.47580072  0.86172897
   0.76342809  0.47580072  0.86172897
   0.14733557  0.18527651  0.69608212
   0.64733559  0.18527651  0.69608212
   0.25137809  0.49516791  0.74872792
   0.75137806  0.49516791  0.74872792
   0.00423092  0.94539988  0.96041310
   0.50423092  0.94539988  0.96041310
   0.05389983  0.05444197  0.84832239
   0.55389983  0.05444197  0.84832239
   0.30373246  0.07342626  0.44570041
   0.80373246  0.07342626  0.44570041
   0.16462369  0.82471353  0.09966327
   0.66462368  0.82471353  0.09966327
   0.26342809  0.97580069  0.36172894
   0.76342809  0.97580069  0.36172894
   0.14733557  0.68527651  0.19608207
   0.64733559  0.68527651  0.19608207
   0.25137809  0.99516791  0.24872789
   0.75137806  0.99516791  0.24872789
   0.00423092  0.44539991  0.46041310
   0.50423092  0.44539991  0.46041310
   0.05389983  0.55444199  0.34832245
   0.55389983  0.55444199  0.34832245
   0.15875485  0.15670252  0.49889919
   0.65875483  0.15670252  0.49889919
   0.15875485  0.65670258  0.99889922
   0.65875483  0.65670258  0.99889922
   0.40875485  0.84329742  0.50110078
   0.90875483  0.84329742  0.50110078
   0.40875485  0.34329748  0.00110078
   0.90875483  0.34329748  0.00110078
   0.14778419  0.25003338  0.34690401
   0.64778417  0.25003338  0.34690401
   0.14778419  0.75003338  0.84690404
   0.64778417  0.75003338  0.84690404
   0.14737405  0.25028604  0.65248573
   0.64737403  0.25028604  0.65248573
   0.14737405  0.75028604  0.15248573
   0.64737403  0.75028604  0.15248573
BiTiFeO                                 
           1
    11.041704   -0.001456    0.003094
    -0.000731    5.516198   -0.004561
     0.011284    0.029299   40.937877
   Bi   Ti   O    Fe
  40  24 120   8
Direct configuration=     2
   0.12644544  0.24744572  0.10752059
   0.62644545  0.24744572  0.10752059
   0.11905840  0.27790218  0.21924354
   0.61905838  0.27790218  0.21924354
   0.12644544  0.74744572  0.60752060
   0.62644545  0.74744572  0.60752060
   0.11905840  0.77790221  0.71924350
   0.61905838  0.77790221  0.71924350
   0.37610907  0.75097289  0.89210738
   0.87610904  0.75097289  0.89210738
   0.36767972  0.72505903  0.78072088
   0.86767972  0.72505903  0.78072088
   0.37610907  0.25097289  0.39210741
   0.87610904  0.25097289  0.39210741
   0.36767972  0.22505904  0.28072082
   0.86767972  0.22505904  0.28072082
   0.37493134  0.75200922  0.10775256
   0.87493134  0.75200922  0.10775256
   0.36632216  0.72704088  0.21910297
   0.86632216  0.72704088  0.21910297
   0.37493134  0.25200925  0.60775259
   0.87493134  0.25200925  0.60775259
   0.36632216  0.22704086  0.71910300
   0.86632216  0.22704086  0.71910300
   0.12606777  0.24795601  0.89183516
   0.62606776  0.24795601  0.89183516
   0.11782768  0.27598497  0.78085668
   0.61782767  0.27598497  0.78085668
   0.12606777  0.74795604  0.39183519
   0.62606776  0.74795604  0.39183519
   0.11782768  0.77598494  0.28085671
   0.61782767  0.77598494  0.28085671
   0.12197221  0.24199269  0.00177753
   0.62197223  0.24199269  0.00177753
   0.12197221  0.74199269  0.50177753
   0.62197223  0.74199269  0.50177753
   0.37204416  0.75841017  0.99955685
   0.87204419  0.75841017  0.99955685
   0.37204416  0.25841017  0.49955679
   0.87204419  0.25841017  0.49955679
   0.39803885  0.74965066  0.34591907
   0.89803885  0.74965066  0.34591907
   0.39803885  0.24965066  0.84591907
   0.89803885  0.24965066  0.84591907
   0.39855580  0.74896901  0.65377990
   0.89855580  0.74896901  0.65377990
   0.39855580  0.24896902  0.15377991
   0.89855580  0.24896902  0.15377991
   0.39579698  0.75407165  0.44874034
   0.89579701  0.75407165  0.44874034
   0.39579698  0.25407165  0.94874031
   0.89579701  0.25407165  0.94874031
   0.14576927  0.24604629  0.55175916
   0.64576930  0.24604629  0.55175916
   0.14576927  0.74604628  0.05175915
   0.64576930  0.74604628  0.05175915
   0.14542789  0.24568822  0.44805304
   0.64542792  0.24568822  0.44805304
   0.14542789  0.74568822  0.94805304
   0.64542792  0.74568822  0.94805304
   0.39578425  0.75506734  0.55217815
   0.89578428  0.75506734  0.55217815
   0.39578425  0.25506734  0.05217814
   0.89578428  0.25506734  0.05217814
   0.30193913  0.55440691  0.05501066
   0.80193916  0.55440691  0.05501066
   0.15980180  0.31983165  0.40486948
   0.65980177  0.31983165  0.40486948
   0.26376385  0.47162743  0.13714141
   0.76376388  0.47162743  0.13714141
   0.14649982  0.18456909  0.30349891
   0.64649985  0.18456909  0.30349891
   0.25178750  0.49492335  0.25134681
   0.75178753  0.49492335  0.25134681
   0.00329749  0.96087661  0.03758576
   0.50329749  0.96087661  0.03758576
   0.05277333  0.05634887  0.15000276
   0.55277331  0.05634887  0.15000276
   0.30193913  0.05440691  0.55501063
   0.80193916  0.05440691  0.55501063
   0.15980180  0.81983165  0.90486948
   0.65980177  0.81983165  0.90486948
   0.26376385  0.97162746  0.63714140
   0.76376388  0.97162746  0.63714140
   0.14649982  0.68456906  0.80349891
   0.64649985  0.68456906  0.80349891
   0.25178750  0.99492338  0.75134684
   0.75178753  0.99492338  0.75134684
   0.00329749  0.46087664  0.53758576
   0.50329749  0.46087664  0.53758576
   0.05277333  0.55634893  0.65000279
   0.55277331  0.55634893  0.65000279
   0.04924186  0.44253148  0.94488545
   0.54924187  0.44253148  0.94488545
   0.40967802  0.68024018  0.59549119
   0.90967799  0.68024018  0.59549119
   0.01274264  0.52701937  0.86311899
   0.51274262  0.52701937  0.86311899
   0.39590702  0.81341266  0.69634109
   0.89590702  0.81341266  0.69634109
   0.00106845  0.50438555  0.74866617
   0.50106847  0.50438555  0.74866617
   0.25593021  0.04258141  0.96183914
   0.75593021  0.04258141  0.96183914
   0.30382377  0.94613176  0.85015659
   0.80382374  0.94613176  0.85015659
   0.04924186  0.94253151  0.44488542
   0.54924187  0.94253151  0.44488542
   0.40967802  0.18024018  0.09549121
   0.90967799  0.18024018  0.09549121
   0.01274264  0.02701939  0.36311899
   0.51274262  0.02701939  0.36311899
   0.39590702  0.31341266  0.19634109
   0.89590702  0.31341266  0.19634109
   0.00106845  0.00438558  0.24866618
   0.50106847  0.00438558  0.24866618
   0.25593021  0.54258143  0.46183911
   0.75593021  0.54258143  0.46183911
   0.30382377  0.44613182  0.35015662
   0.80382374  0.44613182  0.35015662
   0.05448361  0.43529979  0.05320939
   0.55448360  0.43529979  0.05320939
   0.41233614  0.68009322  0.40388195
   0.91233617  0.68009322  0.40388195
   0.01288772  0.52430888  0.13728016
   0.51288770  0.52430888  0.13728016
   0.39711720  0.81359772  0.30432034
   0.89711717  0.81359772  0.30432034
   0.00102656  0.50454987  0.25122518
   0.50102655  0.50454987  0.25122518
   0.25204829  0.04839834  0.03888110
   0.75204829  0.04839834  0.03888110
   0.30490744  0.94459763  0.15075262
   0.80490744  0.94459763  0.15075262
   0.05448361  0.93529976  0.55320943
   0.55448360  0.93529976  0.55320943
   0.41233614  0.18009323  0.90388198
   0.91233617  0.18009323  0.90388198
   0.01288772  0.02430885  0.63728013
   0.51288770  0.02430885  0.63728013
   0.39711720  0.31359775  0.80432031
   0.89711717  0.31359775  0.80432031
   0.00102656  0.00454988  0.75122518
   0.50102655  0.00454988  0.75122518
   0.25204829  0.54839835  0.53888107
   0.75204829  0.54839835  0.53888107
   0.30490744  0.44459763  0.65075265
   0.80490744  0.44459763  0.65075265
   0.30634997  0.55842942  0.94658045
   0.80634997  0.55842942  0.94658045
   0.16295953  0.32145952  0.59692696
   0.66295951  0.32145952  0.59692696
   0.26367497  0.47422912  0.86292145
   0.76367497  0.47422912  0.86292145
   0.14793480  0.18375516  0.69608433
   0.64793482  0.18375516  0.69608433
   0.25174608  0.49474696  0.74872185
   0.75174605  0.49474696  0.74872185
   0.00077072  0.95564250  0.96058518
   0.50077072  0.95564250  0.96058518
   0.05397281  0.05873448  0.84954503
   0.55397281  0.05873448  0.84954503
   0.30634997  0.05842937  0.44658051
   0.80634997  0.05842937  0.44658051
   0.16295953  0.82145952  0.09692697
   0.66295951  0.82145952  0.09692697
   0.26367497  0.97422909  0.36292142
   0.76367497  0.97422909  0.36292142
   0.14793480  0.68375516  0.19608429
   0.64793482  0.68375516  0.19608429
   0.25174608  0.99474696  0.24872182
   0.75174605  0.99474696  0.24872182
   0.00077072  0.45564253  0.46058518
   0.50077072  0.45564253  0.46058518
   0.05397281  0.55873450  0.34954509
   0.55397281  0.55873450  0.34954509
   0.15893586  0.15891196  0.49954907
   0.65893583  0.15891196  0.49954907
   0.15893586  0.65891202  0.99954910
   0.65893583  0.65891202  0.99954910
   0.40871048  0.84091460  0.49934595
   0.90871045  0.84091460  0.49934595
   0.40871048  0.34091466 -0.00065405
   0.90871045  0.34091466 -0.00065405
   0.14730235  0.24943503  0.34574379
   0.64730234  0.24943503  0.34574379
   0.14730235  0.74943503  0.84574381
   0.64730234  0.74943503  0.84574381
   0.14674945  0.24974240  0.65358694
   0.64674944  0.24974240  0.65358694
   0.14674945  0.74974240  0.15358694
   0.64674944  0.74974240  0.15358694
BiTiFeO                                 
           1
    10.979634   -0.001640    0.003018
    -0.000823    5.482945   -0.003974
     0.010955    0.033428   40.874093
   Bi   Ti   O    Fe
  40  24 120   8
Direct configuration=     3
   0.12722976  0.24891995  0.10737882
   0.62722978  0.24891995  0.10737882
   0.11906212  0.27910069  0.21941508
   0.61906210  0.27910069  0.21941508
   0.12722976  0.74891995  0.60737884
   0.62722978  0.74891995  0.60737884
   0.11906212  0.77910072  0.71941503
   0.61906210  0.77910072  0.71941503
   0.37676806  0.74992973  0.89262090
   0.87676803  0.74992973  0.89262090
   0.36734997  0.72584804  0.78060128
   0.86734997  0.72584804  0.78060128
   0.37676806  0.24992973  0.39262093
   0.87676803  0.24992973  0.39262093
   0.36734997  0.22584806  0.28060122
   0.86734997  0.22584806  0.28060122
   0.37532377  0.75039842  0.10762967
   0.87532377  0.75039842  0.10762967
   0.36607018  0.72747391  0.21921540
   0.86607018  0.72747391  0.21921540
   0.37532377  0.25039845  0.60762969
   0.87532377  0.25039845  0.60762969
   0.36607018  0.22747390  0.71921543
   0.86607018  0.22747390  0.71921543
   0.12640737  0.24936426  0.89235807
   0.62640736  0.24936426  0.89235807
   0.11799468  0.27730999  0.78070421
   0.61799468  0.27730999  0.78070421
   0.12640737  0.74936429  0.39235810
   0.62640736  0.74936429  0.39235810
   0.11799468  0.77730996  0.28070424
   0.61799468  0.77730996  0.28070424
   0.12169641  0.24286760  0.00126351
   0.62169643  0.24286760  0.00126351
   0.12169641  0.74286760  0.50126351
   0.62169643  0.74286760  0.50126351
   0.37183927  0.75757886  0.99916042
   0.87183930  0.75757886  0.99916042
   0.37183927  0.25757886  0.49916036
   0.87183930  0.25757886  0.49916036
   0.39806229  0.74835028  0.34750862
   0.89806229  0.74835028  0.34750862
   0.39806229  0.24835028  0.84750862
   0.89806229  0.24835028  0.84750862
   0.39842932  0.74890327  0.65331683
   0.89842932  0.74890327  0.65331683
   0.39842932  0.24890328  0.15331684
   0.89842932  0.24890328  0.15331684
   0.39587495  0.75370380  0.44955442
   0.89587498  0.75370380  0.44955442
   0.39587495  0.25370380  0.94955439
   0.89587498  0.25370380  0.94955439
   0.14566772  0.24642991  0.55069568
   0.64566775  0.24642991  0.55069568
   0.14566772  0.74642990  0.05069567
   0.64566775  0.74642990  0.05069567
   0.14477594  0.24429195  0.44953620
   0.64477597  0.24429195  0.44953620
   0.14477594  0.74429195  0.94953620
   0.64477597  0.74429195  0.94953620
   0.39501168  0.75536553  0.55035192
   0.89501171  0.75536553  0.55035192
   0.39501168  0.25536553  0.05035191
   0.89501171  0.25536553  0.05035191
   0.30153365  0.55477379  0.05511439
   0.80153368  0.55477379  0.05511439
   0.15982812  0.32086987  0.40385567
   0.65982809  0.32086987  0.40385567
   0.26433880  0.47121386  0.13719652
   0.76433883  0.47121386  0.13719652
   0.14671702  0.18293021  0.30286855
   0.64671705  0.18293021  0.30286855
   0.25202077  0.49465765  0.25138100
   0.75202080  0.49465765  0.25138100
   0.00438687  0.96017846  0.03804601
   0.50438687  0.96017846  0.03804601
   0.05226099  0.05567480  0.15008631
   0.55226097  0.05567480  0.15008631
   0.30153365  0.05477380  0.55511437
   0.80153368  0.05477380  0.55511437
   0.15982812  0.82086987  0.90385567
   0.65982809  0.82086987  0.90385567
   0.26433880  0.97121389  0.63719650
   0.76433883  0.97121389  0.63719650
   0.14671702  0.68293018  0.80286855
   0.64671705  0.68293018  0.80286855
   0.25202077  0.99465768  0.75138103
   0.75202080  0.99465768  0.75138103
   0.00438687  0.46017849  0.53804601
   0.50438687  0.46017849  0.53804601
   0.05226099  0.55567485  0.65008634
   0.55226097  0.55567485  0.65008634
   0.05044004  0.44454699  0.94486088
   0.55044005  0.44454699  0.94486088
   0.40968273  0.67913928  0.59654595
   0.90968270  0.67913928  0.59654595
   0.01287879  0.52641007  0.86288406
   0.51287877  0.52641007  0.86288406
   0.39580536  0.81344014  0.69670099
   0.89580536  0.81344014  0.69670099
   0.00089402  0.50420152  0.74866834
   0.50089404  0.50420152  0.74866834
   0.25555511  0.04143549  0.96174116
   0.75555511  0.04143549  0.96174116
   0.30321620  0.94801471  0.84987380
   0.80321617  0.94801471  0.84987380
   0.05044004  0.94454702  0.44486085
   0.55044005  0.94454702  0.44486085
   0.40968273  0.17913928  0.09654596
   0.90968270  0.17913928  0.09654596
   0.01287879  0.02641009  0.36288406
   0.51287877  0.02641009  0.36288406
   0.39580536  0.31344014  0.19670099
   0.89580536  0.31344014  0.19670099
   0.00089402  0.00420155  0.24866835
   0.50089404  0.00420155  0.24866835
   0.25555511  0.54143551  0.46174113
   0.75555511  0.54143551  0.46174113
   0.30321620  0.44801477  0.34987383
   0.80321617  0.44801477  0.34987383
   0.05446149  0.43794585  0.05347898
   0.55446148  0.43794585  0.05347898
   0.41182380  0.67944517  0.40329300
   0.91182383  0.67944517  0.40329300
   0.01271043  0.52362370  0.13729680
   0.51271040  0.52362370  0.13729680
   0.39691135  0.81488001  0.30308113
   0.89691132  0.81488001  0.30308113
   0.00086572  0.50444719  0.25123128
   0.50086571  0.50444719  0.25123128
   0.25259142  0.04654073  0.03923347
   0.75259142  0.04654073  0.03923347
   0.30458763  0.94606371  0.15078222
   0.80458763  0.94606371  0.15078222
   0.05446149  0.93794582  0.55347902
   0.55446148  0.93794582  0.55347902
   0.41182380  0.17944519  0.90329303
   0.91182383  0.17944519  0.90329303
   0.01271043  0.02362367  0.63729677
   0.51271040  0.02362367  0.63729677
   0.39691135  0.31488004  0.80308110
   0.89691132  0.31488004  0.80308110
   0.00086572  0.00444719  0.75123128
   0.50086571  0.00444719  0.75123128
   0.25259142  0.54654074  0.53923345
   0.75259142  0.54654074  0.53923345
   0.30458763  0.44606371  0.65078225
   0.80458763  0.44606371  0.65078225
   0.30507049  0.55917492  0.94639395
   0.80507049  0.55917492  0.94639395
   0.16235583  0.32126398  0.59703170
   0.66235581  0.32126398  0.59703170
   0.26420930  0.47411345  0.86268740
   0.76420930  0.47411345  0.86268740
   0.14816129  0.18243506  0.69657420
   0.64816130  0.18243506  0.69657420
   0.25197876  0.49438339  0.74869139
   0.75197873  0.49438339  0.74869139
   0.00193835  0.95495160  0.96058899
   0.50193835  0.95495160  0.96058899
   0.05328670  0.05741073  0.84930717
   0.55328670  0.05741073  0.84930717
   0.30507049  0.05917488  0.44639401
   0.80507049  0.05917488  0.44639401
   0.16235583  0.82126398  0.09703171
   0.66235581  0.82126398  0.09703171
   0.26420930  0.97411342  0.36268737
   0.76420930  0.97411342  0.36268737
   0.14816129  0.68243506  0.19657416
   0.64816130  0.68243506  0.19657416
   0.25197876  0.99438339  0.24869136
   0.75197873  0.99438339  0.24869136
   0.00193835  0.45495163  0.46058899
   0.50193835  0.45495163  0.46058899
   0.05328670  0.55741075  0.34930723
   0.55328670  0.55741075  0.34930723
   0.15922446  0.16030029  0.49992037
   0.65922443  0.16030029  0.49992037
   0.15922446  0.66030035  0.99992040
   0.65922443  0.66030035  0.99992040
   0.40916653  0.83995510  0.49969988
   0.90916650  0.83995510  0.49969988
   0.40916653  0.33995516 -0.00030012
   0.90916650  0.33995516 -0.00030012
   0.14701133  0.24989627  0.34615536
   0.64701131  0.24989627  0.34615536
   0.14701133  0.74989627  0.84615539
   0.64701131  0.74989627  0.84615539
   0.14652301  0.24984561  0.65341797
   0.64652299  0.24984561  0.65341797
   0.14652301  0.74984561  0.15341797
   0.64652299  0.74984561  0.15341797
BiTiFeO                                 
           1
    11.006193   -0.002209    0.000565
    -0.001107    5.496648   -0.002129
     0.001826    0.047302   41.002402
   Bi   Ti   O    Fe
  40  24 120   8
Direct configuration=     4
   0.12776450  0.24986737  0.10761586
   0.62776452  0.24986737  0.10761586
   0.11896759  0.28044570  0.21970573
   0.61896756  0.28044570  0.21970573
   0.12776450  0.74986737  0.60761588
   0.62776452  0.74986737  0.60761588
   0.11896759  0.78044573  0.71970569
   0.61896756  0.78044573  0.71970569
   0.37686926  0.74930550  0.89265760
   0.87686923  0.74930550  0.89265760
   0.36725474  0.72639268  0.78042769
   0.86725474  0.72639268  0.78042769
   0.37686926  0.24930550  0.39265763
   0.87686923  0.24930550  0.39265763
   0.36725474  0.22639269  0.28042763
   0.86725474  0.22639269  0.28042763
   0.37596208  0.74946516  0.10786558
   0.87596208  0.74946516  0.10786558
   0.36597044  0.72811403  0.21947523
   0.86597044  0.72811403  0.21947523
   0.37596208  0.24946519  0.60786561
   0.87596208  0.24946519  0.60786561
   0.36597044  0.22811402  0.71947526
   0.86597044  0.22811402  0.71947526
   0.12726268  0.24997384  0.89241258
   0.62726268  0.24997384  0.89241258
   0.11781902  0.27904908  0.78047002
   0.61781902  0.27904908  0.78047002
   0.12726268  0.74997387  0.39241261
   0.62726268  0.74997387  0.39241261
   0.11781902  0.77904905  0.28047005
   0.61781902  0.77904905  0.28047005
   0.12184402  0.24317729  0.00092352
   0.62184404  0.24317729  0.00092352
   0.12184402  0.74317729  0.50092352
   0.62184404  0.74317729  0.50092352
   0.37183823  0.75736163  0.99890839
   0.87183826  0.75736163  0.99890839
   0.37183823  0.25736163  0.49890833
   0.87183826  0.25736163  0.49890833
   0.39810568  0.75038474  0.34634286
   0.89810568  0.75038474  0.34634286
   0.39810568  0.25038474  0.84634286
   0.89810568  0.25038474  0.84634286
   0.39836696  0.74992894  0.65391455
   0.89836696  0.74992894  0.65391455
   0.39836696  0.24992895  0.15391456
   0.89836696  0.24992895  0.15391456
   0.39600333  0.75269284  0.44950152
   0.89600336  0.75269284  0.44950152
   0.39600333  0.25269284  0.94950149
   0.89600336  0.25269284  0.94950149
   0.14588953  0.24741176  0.55075645
   0.64588956  0.24741176  0.55075645
   0.14588953  0.74741175  0.05075644
   0.64588956  0.74741175  0.05075644
   0.14481750  0.24533048  0.44952580
   0.64481753  0.24533048  0.44952580
   0.14481750  0.74533048  0.94952580
   0.64481753  0.74533048  0.94952580
   0.39487030  0.75411494  0.55031769
   0.89487033  0.75411494  0.55031769
   0.39487030  0.25411494  0.05031768
   0.89487033  0.25411494  0.05031768
   0.30116690  0.55437178  0.05474350
   0.80116693  0.55437178  0.05474350
   0.15944527  0.31980753  0.40418345
   0.65944524  0.31980753  0.40418345
   0.26455225  0.47136817  0.13719048
   0.76455228  0.47136817  0.13719048
   0.14704994  0.18252735  0.30306055
   0.64704997  0.18252735  0.30306055
   0.25214751  0.49439978  0.25134921
   0.75214754  0.49439978  0.25134921
   0.00540978  0.95981170  0.03827122
   0.50540979  0.95981170  0.03827122
   0.05230649  0.05512553  0.14988444
   0.55230647  0.05512553  0.14988444
   0.30116690  0.05437179  0.55474348
   0.80116693  0.05437179  0.55474348
   0.15944527  0.81980753  0.90418345
   0.65944524  0.81980753  0.90418345
   0.26455225  0.97136820  0.63719046
   0.76455228  0.97136820  0.63719046
   0.14704994  0.68252732  0.80306055
   0.64704997  0.68252732  0.80306055
   0.25214751  0.99439981  0.75134924
   0.75214754  0.99439981  0.75134924
   0.00540978  0.45981173  0.53827122
   0.50540979  0.45981173  0.53827122
   0.05230649  0.55512559  0.64988447
   0.55230647  0.55512559  0.64988447
   0.05123795  0.44647357  0.94522508
   0.55123797  0.44647357  0.94522508
   0.40924707  0.68044274  0.59608887
   0.90924704  0.68044274  0.59608887
   0.01300022  0.52585278  0.86283350
   0.51300020  0.52585278  0.86283350
   0.39568618  0.81186399  0.69617273
   0.89568618  0.81186399  0.69617273
   0.00076049  0.50427200  0.74864333
   0.50076051  0.50427200  0.74864333
   0.25535766  0.04016545  0.96176067
   0.75535766  0.04016545  0.96176067
   0.30275621  0.94871212  0.85003772
   0.80275618  0.94871212  0.85003772
   0.05123795  0.94647360  0.44522505
   0.55123797  0.94647360  0.44522505
   0.40924707  0.18044274  0.09608889
   0.90924704  0.18044274  0.09608889
   0.01300022  0.02585280  0.36283350
   0.51300020  0.02585280  0.36283350
   0.39568618  0.31186399  0.19617273
   0.89568618  0.31186399  0.19617273
   0.00076049  0.00427203  0.24864335
   0.50076051  0.00427203  0.24864335
   0.25535766  0.54016547  0.46176064
   0.75535766  0.54016547  0.46176064
   0.30275621  0.44871218  0.35003775
   0.80275618  0.44871218  0.35003775
   0.05393057  0.44130971  0.05338504
   0.55393056  0.44130971  0.05338504
   0.41068972  0.68052224  0.40358600
   0.91068975  0.68052224  0.40358600
   0.01282658  0.52366270  0.13722124
   0.51282655  0.52366270  0.13722124
   0.39674098  0.81263068  0.30406178
   0.89674095  0.81263068  0.30406178
   0.00070957  0.50438588  0.25118185
   0.50070956  0.50438588  0.25118185
   0.25325327  0.04438999  0.03926133
   0.75325327  0.04438999  0.03926133
   0.30392091  0.94629679  0.15050273
   0.80392091  0.94629679  0.15050273
   0.05393057  0.94130968  0.55338509
   0.55393056  0.94130968  0.55338509
   0.41068972  0.18052225  0.90358603
   0.91068975  0.18052225  0.90358603
   0.01282658  0.02366267  0.63722121
   0.51282655  0.02366267  0.63722121
   0.39674098  0.31263070  0.80406175
   0.89674095  0.31263070  0.80406175
   0.00070957  0.00438589  0.75118185
   0.50070956  0.00438589  0.75118185
   0.25325327  0.54439000  0.53926131
   0.75325327  0.54439000  0.53926131
   0.30392091  0.44629679  0.65050276
   0.80392091  0.44629679  0.65050276
   0.30359593  0.55846075  0.94649438
   0.80359593  0.55846075  0.94649438
   0.16106421  0.31945921  0.59615437
   0.66106420  0.31945921  0.59615437
   0.26464461  0.47404589  0.86266430
   0.76464461  0.47404589  0.86266430
   0.14847155  0.18186289  0.69652251
   0.64847156  0.18186289  0.69652251
   0.25211721  0.49419234  0.74863262
   0.75211718  0.49419234  0.74863262
   0.00327391  0.95512818  0.96076110
   0.50327391  0.95512818  0.96076110
   0.05284573  0.05683885  0.84953575
   0.55284572  0.05683885  0.84953575
   0.30359593  0.05846071  0.44649444
   0.80359593  0.05846071  0.44649444
   0.16106421  0.81945921  0.09615439
   0.66106420  0.81945921  0.09615439
   0.26464461  0.97404586  0.36266427
   0.76464461  0.97404586  0.36266427
   0.14847155  0.68186289  0.19652247
   0.64847156  0.68186289  0.19652247
   0.25211721  0.99419234  0.24863259
   0.75211718  0.99419234  0.24863259
   0.00327391  0.45512821  0.46076110
   0.50327391  0.45512821  0.46076110
   0.05284573  0.55683887  0.34953581
   0.55284572  0.55683887  0.34953581
   0.15957357  0.16247302  0.50017569
   0.65957354  0.16247302  0.50017569
   0.15957357  0.66247308  1.00017572
   0.65957354  0.66247308  1.00017572
   0.40963773  0.83801018  0.49997209
   0.90963770  0.83801018  0.49997209
   0.40963773  0.33801024 -0.00002791
   0.90963770  0.33801024 -0.00002791
   0.14669476  0.24914923  0.34550195
   0.64669474  0.24914923  0.34550195
   0.14669476  0.74914923  0.84550198
   0.64669474  0.74914923  0.84550198