BiTiFeO                                 
           1
    10.977992    0.000000    0.000000
     0.000000    5.481651   -0.005272
     0.000000    0.023057   40.474437
   Bi   Ti   O    Fe
  40  24 120   8
Direct configuration=     1
   0.12581734  0.24552768  0.10456018
   0.62581736  0.24552768  0.10456018
   0.11884221  0.27533320  0.21951799
   0.61884218  0.27533320  0.21951799
   0.12581734  0.74552768  0.60456020
   0.62581736  0.74552768  0.60456020
   0.11884221  0.77533323  0.71951795
   0.61884218  0.77533323  0.71951795
   0.37581733  0.75447232  0.89543980
   0.87581730  0.75447232  0.89543980
   0.36884218  0.72466677  0.78048205
   0.86884218  0.72466677  0.78048205
   0.37581733  0.25447232  0.39543983
   0.87581730  0.25447232  0.39543983
   0.36884218  0.22466679  0.28048199
   0.86884218  0.22466679  0.28048199
   0.37389028  0.75425547  0.10488448
   0.87389028  0.75425547  0.10488448
   0.36734301  0.72707325  0.21940872
   0.86734301  0.72707325  0.21940872
   0.37389028  0.25425550  0.60488451
   0.87389028  0.25425550  0.60488451
   0.36734301  0.22707324  0.71940875
   0.86734301  0.22707324  0.71940875
   0.12389029  0.24574450  0.89511549
   0.62389028  0.24574450  0.89511549
   0.11734302  0.27292678  0.78059125
   0.61734301  0.27292678  0.78059125
   0.12389029  0.74574453  0.39511553
   0.62389028  0.74574453  0.39511553
   0.11734302  0.77292675  0.28059128
   0.61734301  0.77292675  0.28059128
   0.12124083  0.24192810  0.00106251
   0.62124085  0.24192810  0.00106251
   0.12124083  0.74192810  0.50106251
   0.62124085  0.74192810  0.50106251
   0.37124082  0.75807190  0.99893749
   0.87124085  0.75807190  0.99893749
   0.37124082  0.25807190  0.49893743
   0.87124085  0.25807190  0.49893743
   0.39737403  0.74971396  0.34751427
   0.89737403  0.74971396  0.34751427
   0.39737403  0.24971396  0.84751427
   0.89737403  0.24971396  0.84751427
   0.39509413  0.75150693  0.45036468
   0.89509416  0.75150693  0.45036468
   0.39509413  0.25150693  0.95036465
   0.89509416  0.25150693  0.95036465
   0.14509413  0.24849309  0.54963535
   0.64509416  0.24849309  0.54963535
   0.14737405  0.25028604  0.65248573
   0.64737403  0.25028604  0.65248573
   0.14737405  0.75028604  0.15248573
   0.64737403  0.75028604  0.15248573
   0.14509413  0.74849307  0.04963534
   0.64509416  0.74849307  0.04963534
   0.14572605  0.24496144  0.45021892
   0.64572608  0.24496144  0.45021892
   0.14572605  0.74496144  0.95021892
   0.64572608  0.74496144  0.95021892
   0.39572605  0.75503856  0.54978108
   0.89572608  0.75503856  0.54978108
   0.39572605  0.25503856  0.04978108
   0.89572608  0.25503856  0.04978108
   0.30398616  0.55333757  0.05623510
   0.80398619  0.55333757  0.05623510
   0.16037145  0.32244712  0.40269166
   0.66037142  0.32244712  0.40269166
   0.26384732  0.47232899  0.13806446
   0.76384735  0.47232899  0.13806446
   0.14598581  0.18621907  0.30358261
   0.64598584  0.18621907  0.30358261
   0.25139269  0.49499974  0.25136027
   0.75139272  0.49499974  0.25136027
   0.00183105  0.96418035  0.03809405
   0.50183105  0.96418035  0.03809405
   0.05208983  0.05360783  0.15095773
   0.55208981  0.05360783  0.15095773
   0.30398616  0.05333758  0.55623508
   0.80398619  0.05333758  0.55623508
   0.16037145  0.82244712  0.90269166
   0.66037142  0.82244712  0.90269166
   0.26384732  0.97232902  0.63806444
   0.76384735  0.97232902  0.63806444
   0.14598581  0.68621904  0.80358261
   0.64598584  0.68621904  0.80358261
   0.25139269  0.99499977  0.75136030
   0.75139272  0.99499977  0.75136030
   0.00183105  0.46418038  0.53809404
   0.50183105  0.46418038  0.53809404
   0.05208983  0.55360788  0.65095776
   0.55208981  0.55360788  0.65095776
   0.05398618  0.44666240  0.94376492
   0.55398619  0.44666240  0.94376492
   0.41037145  0.67755288  0.59730834
   0.91037142  0.67755288  0.59730834
   0.01384731  0.52767098  0.86193556
   0.51384729  0.52767098  0.86193556
   0.39598584  0.81378096  0.69641739
   0.89598584  0.81378096  0.69641739
   0.00139270  0.50500023  0.74863970
   0.50139272  0.50500023  0.74863970
   0.25183105  0.03581963  0.96190596
   0.75183105  0.03581963  0.96190596
   0.30208984  0.94639212  0.84904224
   0.80208981  0.94639212  0.84904224
   0.05398618  0.94666243  0.44376490
   0.55398619  0.94666243  0.44376490
   0.41037145  0.17755288  0.09730835
   0.91037142  0.17755288  0.09730835
   0.01384731  0.02767100  0.36193556
   0.51384729  0.02767100  0.36193556
   0.39598584  0.31378096  0.19641739
   0.89598584  0.31378096  0.19641739
   0.00139270  0.00500026  0.24863972
   0.50139272  0.00500026  0.24863972
   0.25183105  0.53581965  0.46190593
   0.75183105  0.53581965  0.46190593
   0.30208984  0.44639218  0.34904227
   0.80208981  0.44639218  0.34904227
   0.05373246  0.42657372  0.05429961
   0.55373246  0.42657372  0.05429961
   0.41462371  0.67528647  0.40033671
   0.91462374  0.67528647  0.40033671
   0.01342812  0.52419931  0.13827106
   0.51342809  0.52419931  0.13827106
   0.39733556  0.81472349  0.30391791
   0.89733553  0.81472349  0.30391791
   0.00137807  0.50483209  0.25127208
   0.50137806  0.50483209  0.25127208
   0.25423092  0.05460011  0.03958693
   0.75423092  0.05460011  0.03958693
   0.30389983  0.94555801  0.15167758
   0.80389983  0.94555801  0.15167758
   0.05373246  0.92657369  0.55429965
   0.55373246  0.92657369  0.55429965
   0.41462371  0.17528649  0.90033674
   0.91462374  0.17528649  0.90033674
   0.01342812  0.02419928  0.63827103
   0.51342809  0.02419928  0.63827103
   0.39733556  0.31472352  0.80391788
   0.89733553  0.31472352  0.80391788
   0.00137807  0.00483209  0.75127208
   0.50137806  0.00483209  0.75127208
   0.25423092  0.55460012  0.53958690
   0.75423092  0.55460012  0.53958690
   0.30389983  0.44555801  0.65167761
   0.80389983  0.44555801  0.65167761
   0.30373246  0.57342631  0.94570035
   0.80373246  0.57342631  0.94570035
   0.16462369  0.32471353  0.59966326
   0.66462368  0.32471353  0.59966326
   0.26342809  0.47580072  0.86172897
   0.76342809  0.47580072  0.86172897
   0.14733557  0.18527651  0.69608212
   0.64733559  0.18527651  0.69608212
   0.25137809  0.49516791  0.74872792
   0.75137806  0.49516791  0.74872792
   0.00423092  0.94539988  0.96041310
   0.50423092  0.94539988  0.96041310
   0.05389983  0.05444197  0.84832239
   0.55389983  0.05444197  0.84832239
   0.30373246  0.07342626  0.44570041
   0.80373246  0.07342626  0.44570041
   0.16462369  0.82471353  0.09966327
   0.66462368  0.82471353  0.09966327
   0.26342809  0.97580069  0.36172894
   0.76342809  0.97580069  0.36172894
   0.14733557  0.68527651  0.19608207
   0.64733559  0.68527651  0.19608207
   0.25137809  0.99516791  0.24872789
   0.75137806  0.99516791  0.24872789
   0.00423092  0.44539991  0.46041310
   0.50423092  0.44539991  0.46041310
   0.05389983  0.55444199  0.34832245
   0.55389983  0.55444199  0.34832245
   0.15875485  0.15670252  0.49889919
   0.65875483  0.15670252  0.49889919
   0.15875485  0.65670258  0.99889922
   0.65875483  0.65670258  0.99889922
   0.40875485  0.84329742  0.50110078
   0.90875483  0.84329742  0.50110078
   0.40875485  0.34329748  0.00110078
   0.90875483  0.34329748  0.00110078
   0.14778419  0.25003338  0.34690401
   0.64778417  0.25003338  0.34690401
   0.14778419  0.75003338  0.84690404
   0.64778417  0.75003338  0.84690404
   0.39778417  0.74996662  0.65309596
   0.89778417  0.74996662  0.65309596
   0.39778417  0.24996664  0.15309598
   0.89778417  0.24996664  0.15309598
BiTiFeO                                 
           1
    11.019798    0.000000    0.000000
     0.000000    5.505748   -0.008998
     0.000000   -0.003850   40.997052
   Bi   Ti   O    Fe
  40  24 120   8
Direct configuration=     2
   0.12603530  0.24845948  0.10754514
   0.62603531  0.24845948  0.10754514
   0.11800096  0.27498621  0.21920907
   0.61800094  0.27498621  0.21920907
   0.12603530  0.74845948  0.60754516
   0.62603531  0.74845948  0.60754516
   0.11800096  0.77498624  0.71920903
   0.61800094  0.77498624  0.71920903
   0.37603528  0.75154052  0.89245484
   0.87603525  0.75154052  0.89245484
   0.36800094  0.72501376  0.78079097
   0.86800094  0.72501376  0.78079097
   0.37603528  0.25154052  0.39245487
   0.87603525  0.25154052  0.39245487
   0.36800094  0.22501378  0.28079091
   0.86800094  0.22501378  0.28079091
   0.37579377  0.75221651  0.10780597
   0.87579377  0.75221651  0.10780597
   0.36753315  0.72459671  0.21913020
   0.86753315  0.72459671  0.21913020
   0.37579377  0.25221654  0.60780599
   0.87579377  0.25221654  0.60780599
   0.36753315  0.22459670  0.71913023
   0.86753315  0.22459670  0.71913023
   0.12579378  0.24778346  0.89219401
   0.62579377  0.24778346  0.89219401
   0.11753315  0.27540332  0.78086977
   0.61753315  0.27540332  0.78086977
   0.12579378  0.74778349  0.39219404
   0.62579377  0.74778349  0.39219404
   0.11753315  0.77540329  0.28086980
   0.61753315  0.77540329  0.28086980
   0.12189403  0.24167079  0.00109829
   0.62189405  0.24167079  0.00109829
   0.12189403  0.74167079  0.50109829
   0.62189405  0.74167079  0.50109829
   0.37189402  0.75832921  0.99890171
   0.87189405  0.75832921  0.99890171
   0.37189402  0.25832921  0.49890165
   0.87189405  0.25832921  0.49890165
   0.39793436  0.74944495  0.34629917
   0.89793436  0.74944495  0.34629917
   0.39793436  0.24944495  0.84629917
   0.89793436  0.24944495  0.84629917
   0.39628615  0.75347814  0.44870284
   0.89628618  0.75347814  0.44870284
   0.39628615  0.25347814  0.94870281
   0.89628618  0.25347814  0.94870281
   0.14628615  0.24652187  0.55129719
   0.64628618  0.24652187  0.55129719
   0.14793437  0.25055505  0.65370083
   0.64793436  0.25055505  0.65370083
   0.14793437  0.75055505  0.15370083
   0.64793436  0.75055505  0.15370083
   0.14628615  0.74652186  0.05129718
   0.64628618  0.74652186  0.05129718
   0.14582016  0.24559926  0.44792416
   0.64582019  0.24559926  0.44792416
   0.14582016  0.74559926  0.94792416
   0.64582019  0.74559926  0.94792416
   0.39582016  0.75440074  0.55207584
   0.89582019  0.75440074  0.55207584
   0.39582016  0.25440074  0.05207583
   0.89582019  0.25440074  0.05207583
   0.30048372  0.55568929  0.05508892
   0.80048375  0.55568929  0.05508892
   0.15984507  0.31999568  0.40466673
   0.65984504  0.31999568  0.40466673
   0.26318544  0.47263272  0.13706986
   0.76318547  0.47263272  0.13706986
   0.14641759  0.18431030  0.30338037
   0.64641762  0.18431030  0.30338037
   0.25149880  0.49572481  0.25140021
   0.75149883  0.49572481  0.25140021
   0.00444830  0.95916545  0.03784310
   0.50444830  0.95916545  0.03784310
   0.05338180  0.05424204  0.15002843
   0.55338178  0.05424204  0.15002843
   0.30048372  0.05568930  0.55508890
   0.80048375  0.05568930  0.55508890
   0.15984507  0.81999568  0.90466673
   0.65984504  0.81999568  0.90466673
   0.26318544  0.97263275  0.63706984
   0.76318547  0.97263275  0.63706984
   0.14641759  0.68431027  0.80338037
   0.64641762  0.68431027  0.80338037
   0.25149880  0.99572484  0.75140024
   0.75149883  0.99572484  0.75140024
   0.00444830  0.45916548  0.53784309
   0.50444830  0.45916548  0.53784309
   0.05338180  0.55424209  0.65002846
   0.55338178  0.55424209  0.65002846
   0.05048373  0.44431068  0.94491110
   0.55048375  0.44431068  0.94491110
   0.40984507  0.68000432  0.59533327
   0.90984504  0.68000432  0.59533327
   0.01318543  0.52736725  0.86293016
   0.51318541  0.52736725  0.86293016
   0.39641762  0.81568973  0.69661963
   0.89641762  0.81568973  0.69661963
   0.00149881  0.50427516  0.74859976
   0.50149883  0.50427516  0.74859976
   0.25444830  0.04083453  0.96215691
   0.75444830  0.04083453  0.96215691
   0.30338181  0.94575791  0.84997154
   0.80338178  0.94575791  0.84997154
   0.05048373  0.94431071  0.44491107
   0.55048375  0.94431071  0.44491107
   0.40984507  0.18000432  0.09533329
   0.90984504  0.18000432  0.09533329
   0.01318543  0.02736727  0.36293016
   0.51318541  0.02736727  0.36293016
   0.39641762  0.31568973  0.19661963
   0.89641762  0.31568973  0.19661963
   0.00149881  0.00427519  0.24859978
   0.50149883  0.00427519  0.24859978
   0.25444830  0.54083455  0.46215688
   0.75444830  0.54083455  0.46215688
   0.30338181  0.44575797  0.34997157
   0.80338178  0.44575797  0.34997157
   0.05531556  0.43838143  0.05334190
   0.55531555  0.43838143  0.05334190
   0.41262293  0.67937623  0.40344134
   0.91262296  0.67937623  0.40344134
   0.01348083  0.52531930  0.13727584
   0.51348080  0.52531930  0.13727584
   0.39721694  0.81409405  0.30408129
   0.89721691  0.81409405  0.30408129
   0.00119880  0.50530981  0.25124538
   0.50119879  0.50530981  0.25124538
   0.25117263  0.04657347  0.03916792
   0.75117263  0.04657347  0.03916792
   0.30427652  0.94224521  0.15069062
   0.80427652  0.94224521  0.15069062
   0.05531556  0.93838140  0.55334194
   0.55531555  0.93838140  0.55334194
   0.41262293  0.17937625  0.90344137
   0.91262296  0.17937625  0.90344137
   0.01348083  0.02531927  0.63727581
   0.51348080  0.02531927  0.63727581
   0.39721694  0.31409408  0.80408126
   0.89721691  0.31409408  0.80408126
   0.00119880  0.00530982  0.75124538
   0.50119879  0.00530982  0.75124538
   0.25117263  0.54657348  0.53916789
   0.75117263  0.54657348  0.53916789
   0.30427652  0.44224521  0.65069065
   0.80427652  0.44224521  0.65069065
   0.30531555  0.56161860  0.94665806
   0.80531555  0.56161860  0.94665806
   0.16262292  0.32062377  0.59655863
   0.66262290  0.32062377  0.59655863
   0.26348080  0.47468073  0.86272419
   0.76348080  0.47468073  0.86272419
   0.14721695  0.18590595  0.69591874
   0.64721697  0.18590595  0.69591874
   0.25119882  0.49469019  0.74875462
   0.75119879  0.49469019  0.74875462
   0.00117264  0.95342652  0.96083211
   0.50117263  0.95342652  0.96083211
   0.05427653  0.05775477  0.84930935
   0.55427652  0.05775477  0.84930935
   0.30531555  0.06161856  0.44665812
   0.80531555  0.06161856  0.44665812
   0.16262292  0.82062377  0.09655864
   0.66262290  0.82062377  0.09655864
   0.26348080  0.97468070  0.36272416
   0.76348080  0.97468070  0.36272416
   0.14721695  0.68590595  0.19591869
   0.64721697  0.68590595  0.19591869
   0.25119882  0.99469019  0.24875459
   0.75119879  0.99469019  0.24875459
   0.00117264  0.45342655  0.46083211
   0.50117263  0.45342655  0.46083211
   0.05427653  0.55775479  0.34930941
   0.55427652  0.55775479  0.34930941
   0.15879748  0.15903452  0.50016243
   0.65879745  0.15903452  0.50016243
   0.15879748  0.65903458  1.00016246
   0.65879745  0.65903458  1.00016246
   0.40879748  0.84096542  0.49983754
   0.90879745  0.84096542  0.49983754
   0.40879748  0.34096548 -0.00016246
   0.90879745  0.34096548 -0.00016246
   0.14735963  0.24957961  0.34605817
   0.64735962  0.24957961  0.34605817
   0.14735963  0.74957961  0.84605820
   0.64735962  0.74957961  0.84605820
   0.39735962  0.75042039  0.65394180
   0.89735962  0.75042039  0.65394180
   0.39735962  0.25042040  0.15394182
   0.89735962  0.25042040  0.15394182
BiTiFeO                                 
           1
    10.989771    0.000000    0.000000
     0.000000    5.489234   -0.005830
     0.000000    0.019731   40.984013
   Bi   Ti   O    Fe
  40  24 120   8
Direct configuration=     3
   0.12675716  0.24947955  0.10728415
   0.62675717  0.24947955  0.10728415
   0.11761643  0.27398483  0.21926756
   0.61761641  0.27398483  0.21926756
   0.12675716  0.74947955  0.60728417
   0.62675717  0.74947955  0.60728417
   0.11761643  0.77398486  0.71926752
   0.61761641  0.77398486  0.71926752
   0.37675714  0.75052045  0.89271583
   0.87675711  0.75052045  0.89271583
   0.36761641  0.72601514  0.78073248
   0.86761641  0.72601514  0.78073248
   0.37675714  0.25052045  0.39271586
   0.87675711  0.25052045  0.39271586
   0.36761641  0.22601515  0.28073242
   0.86761641  0.22601515  0.28073242
   0.37647192  0.75103077  0.10755026
   0.87647192  0.75103077  0.10755026
   0.36810727  0.72407060  0.21907396
   0.86810727  0.72407060  0.21907396
   0.37647192  0.25103080  0.60755028
   0.87647192  0.25103080  0.60755028
   0.36810727  0.22407059  0.71907399
   0.86810727  0.22407059  0.71907399
   0.12647193  0.24896920  0.89244972
   0.62647192  0.24896920  0.89244972
   0.11810727  0.27592943  0.78092601
   0.61810727  0.27592943  0.78092601
   0.12647193  0.74896923  0.39244975
   0.62647192  0.74896923  0.39244975
   0.11810727  0.77592940  0.28092604
   0.61810727  0.77592940  0.28092604
   0.12183393  0.24227993  0.00103557
   0.62183395  0.24227993  0.00103557
   0.12183393  0.74227993  0.50103557
   0.62183395  0.74227993  0.50103557
   0.37183392  0.75772007  0.99896443
   0.87183395  0.75772007  0.99896443
   0.37183392  0.25772007  0.49896437
   0.87183395  0.25772007  0.49896437
   0.39796391  0.74911804  0.34696036
   0.89796391  0.74911804  0.34696036
   0.39796391  0.24911804  0.84696036
   0.89796391  0.24911804  0.84696036
   0.39608581  0.75314071  0.44939793
   0.89608584  0.75314071  0.44939793
   0.39608581  0.25314071  0.94939790
   0.89608584  0.25314071  0.94939790
   0.14608581  0.24685930  0.55060210
   0.64608584  0.24685930  0.55060210
   0.14796392  0.25088196  0.65303964
   0.64796391  0.25088196  0.65303964
   0.14796392  0.75088196  0.15303964
   0.64796391  0.75088196  0.15303964
   0.14608581  0.74685929  0.05060209
   0.64608584  0.74685929  0.05060209
   0.14527961  0.24512924  0.44920820
   0.64527964  0.24512924  0.44920820
   0.14527961  0.74512924  0.94920820
   0.64527964  0.74512924  0.94920820
   0.39527961  0.75487076  0.55079180
   0.89527964  0.75487076  0.55079180
   0.39527961  0.25487076  0.05079180
   0.89527964  0.25487076  0.05079180
   0.30080375  0.55529732  0.05510554
   0.80080378  0.55529732  0.05510554
   0.15976359  0.32070315  0.40385948
   0.65976356  0.32070315  0.40385948
   0.26315391  0.47301574  0.13716824
   0.76315394  0.47301574  0.13716824
   0.14654132  0.18365681  0.30303897
   0.64654135  0.18365681  0.30303897
   0.25146141  0.49591945  0.25142641
   0.75146144  0.49591945  0.25142641
   0.00468779  0.95925575  0.03807298
   0.50468779  0.95925575  0.03807298
   0.05303272  0.05311049  0.15013868
   0.55303270  0.05311049  0.15013868
   0.30080375  0.05529733  0.55510552
   0.80080378  0.05529733  0.55510552
   0.15976359  0.82070315  0.90385948
   0.65976356  0.82070315  0.90385948
   0.26315391  0.97301577  0.63716823
   0.76315394  0.97301577  0.63716823
   0.14654132  0.68365678  0.80303897
   0.64654135  0.68365678  0.80303897
   0.25146141  0.99591947  0.75142644
   0.75146144  0.99591947  0.75142644
   0.00468779  0.45925578  0.53807297
   0.50468779  0.45925578  0.53807297
   0.05303272  0.55311054  0.65013871
   0.55303270  0.55311054  0.65013871
   0.05080376  0.44470265  0.94489448
   0.55080378  0.44470265  0.94489448
   0.40976359  0.67929685  0.59614052
   0.90976356  0.67929685  0.59614052
   0.01315390  0.52698423  0.86283177
   0.51315388  0.52698423  0.86283177
   0.39654135  0.81634322  0.69696103
   0.89654135  0.81634322  0.69696103
   0.00146142  0.50408053  0.74857356
   0.50146144  0.50408053  0.74857356
   0.25468779  0.04074422  0.96192703
   0.75468779  0.04074422  0.96192703
   0.30303273  0.94688946  0.84986129
   0.80303270  0.94688946  0.84986129
   0.05080376  0.94470268  0.44489445
   0.55080378  0.94470268  0.44489445
   0.40976359  0.17929685  0.09614054
   0.90976356  0.17929685  0.09614054
   0.01315390  0.02698425  0.36283177
   0.51315388  0.02698425  0.36283177
   0.39654135  0.31634322  0.19696103
   0.89654135  0.31634322  0.19696103
   0.00146142  0.00408056  0.24857357
   0.50146144  0.00408056  0.24857357
   0.25468779  0.54074425  0.46192700
   0.75468779  0.54074425  0.46192700
   0.30303273  0.44688952  0.34986132
   0.80303270  0.44688952  0.34986132
   0.05482461  0.43915662  0.05349754
   0.55482460  0.43915662  0.05349754
   0.41202725  0.67945532  0.40315937
   0.91202728  0.67945532  0.40315937
   0.01379823  0.52556974  0.13737546
   0.51379820  0.52556974  0.13737546
   0.39697067  0.81438077  0.30345730
   0.89697064  0.81438077  0.30345730
   0.00114626  0.50557540  0.25126360
   0.50114625  0.50557540  0.25126360
   0.25183961  0.04601877  0.03931405
   0.75183961  0.04601877  0.03931405
   0.30377383  0.94286339  0.15075857
   0.80377383  0.94286339  0.15075857
   0.05482461  0.93915659  0.55349758
   0.55482460  0.93915659  0.55349758
   0.41202725  0.17945534  0.90315940
   0.91202728  0.17945534  0.90315940
   0.01379823  0.02556971  0.63737543
   0.51379820  0.02556971  0.63737543
   0.39697067  0.31438080  0.80345727
   0.89697064  0.31438080  0.80345727
   0.00114626  0.00557541  0.75126360
   0.50114625  0.00557541  0.75126360
   0.25183961  0.54601878  0.53931403
   0.75183961  0.54601878  0.53931403
   0.30377383  0.44286339  0.65075860
   0.80377383  0.44286339  0.65075860
   0.30482460  0.56084341  0.94650242
   0.80482460  0.56084341  0.94650242
   0.16202724  0.32054468  0.59684060
   0.66202722  0.32054468  0.59684060
   0.26379820  0.47443029  0.86262457
   0.76379820  0.47443029  0.86262457
   0.14697068  0.18561923  0.69654273
   0.64697070  0.18561923  0.69654273
   0.25114628  0.49442460  0.74873640
   0.75114625  0.49442460  0.74873640
   0.00183962  0.95398122  0.96068597
   0.50183961  0.95398122  0.96068597
   0.05377384  0.05713659  0.84924140
   0.55377383  0.05713659  0.84924140
   0.30482460  0.06084337  0.44650248
   0.80482460  0.06084337  0.44650248
   0.16202724  0.82054468  0.09684061
   0.66202722  0.82054468  0.09684061
   0.26379820  0.97443026  0.36262454
   0.76379820  0.97443026  0.36262454
   0.14697068  0.68561923  0.19654268
   0.64697070  0.68561923  0.19654268
   0.25114628  0.99442460  0.24873637
   0.75114625  0.99442460  0.24873637
   0.00183962  0.45398125  0.46068597
   0.50183961  0.45398125  0.46068597
   0.05377384  0.55713661  0.34924146
   0.55377383  0.55713661  0.34924146
   0.15894930  0.16025999  0.50017558
   0.65894927  0.16025999  0.50017558
   0.15894930  0.66026005  1.00017561
   0.65894927  0.66026005  1.00017561
   0.40894930  0.83973995  0.49982439
   0.90894927  0.83973995  0.49982439
   0.40894930  0.33974001 -0.00017561
   0.90894927  0.33974001 -0.00017561
   0.14710963  0.24947997  0.34606812
   0.64710961  0.24947997  0.34606812
   0.14710963  0.74947997  0.84606815
   0.64710961  0.74947997  0.84606815
   0.39710961  0.75052003  0.65393185
   0.89710961  0.75052003  0.65393185
   0.39710961  0.25052004  0.15393186
   0.89710961  0.25052004  0.15393186
BiTiFeO                                 
           1
    10.984685    0.000000    0.000000
     0.000000    5.486219   -0.005306
     0.000000    0.023670   41.062638
   Bi   Ti   O    Fe
  40  24 120   8
Direct configuration=     4
   0.12697563  0.25044096  0.10748494
   0.62697564  0.25044096  0.10748494
   0.11672214  0.27301354  0.21971468
   0.61672212  0.27301354  0.21971468
   0.12697563  0.75044096  0.60748496
   0.62697564  0.75044096  0.60748496
   0.11672214  0.77301357  0.71971464
   0.61672212  0.77301357  0.71971464
   0.37697561  0.74955904  0.89251504
   0.87697558  0.74955904  0.89251504
   0.36672212  0.72698643  0.78028536
   0.86672212  0.72698643  0.78028536
   0.37697561  0.24955904  0.39251507
   0.87697558  0.24955904  0.39251507
   0.36672212  0.22698645  0.28028530
   0.86672212  0.22698645  0.28028530
   0.37741051  0.75008530  0.10774592
   0.87741051  0.75008530  0.10774592
   0.36879135  0.72237142  0.21934808
   0.86879135  0.72237142  0.21934808
   0.37741051  0.25008533  0.60774594
   0.87741051  0.25008533  0.60774594
   0.36879135  0.22237140  0.71934811
   0.86879135  0.22237140  0.71934811
   0.12741052  0.24991467  0.89225406
   0.62741051  0.24991467  0.89225406
   0.11879135  0.27762861  0.78065189
   0.61879135  0.27762861  0.78065189
   0.12741052  0.74991470  0.39225409
   0.62741051  0.74991470  0.39225409
   0.11879135  0.77762858  0.28065192
   0.61879135  0.77762858  0.28065192
   0.12190796  0.24297903  0.00098726
   0.62190799  0.24297903  0.00098726
   0.12190796  0.74297903  0.50098726
   0.62190799  0.74297903  0.50098726
   0.37190796  0.75702097  0.99901274
   0.87190799  0.75702097  0.99901274
   0.37190796  0.25702097  0.49901268
   0.87190799  0.25702097  0.49901268
   0.39814889  0.75045841  0.34610291
   0.89814889  0.75045841  0.34610291
   0.39814889  0.25045841  0.84610291
   0.89814889  0.25045841  0.84610291
   0.39611836  0.75252871  0.44942379
   0.89611839  0.75252871  0.44942379
   0.39611836  0.25252871  0.94942376
   0.89611839  0.25252871  0.94942376
   0.14611836  0.24747130  0.55057624
   0.64611839  0.24747130  0.55057624
   0.14814891  0.24954159  0.65389709
   0.64814889  0.24954159  0.65389709
   0.14814891  0.74954159  0.15389709
   0.64814889  0.74954159  0.15389709
   0.14611836  0.74747129  0.05057623
   0.64611839  0.74747129  0.05057623
   0.14513091  0.24617183  0.44935150
   0.64513094  0.24617183  0.44935150
   0.14513091  0.74617183  0.94935150
   0.64513094  0.74617183  0.94935150
   0.39513091  0.75382817  0.55064850
   0.89513094  0.75382817  0.55064850
   0.39513091  0.25382817  0.05064849
   0.89513094  0.25382817  0.05064849
   0.30110292  0.55427145  0.05472573
   0.80110295  0.55427145  0.05472573
   0.15929411  0.31952477  0.40429894
   0.65929408  0.31952477  0.40429894
   0.26298223  0.47387140  0.13715536
   0.76298226  0.47387140  0.13715536
   0.14692838  0.18331579  0.30316133
   0.64692841  0.18331579  0.30316133
   0.25149701  0.49613953  0.25138099
   0.75149704  0.49613953  0.25138099
   0.00516576  0.95959994  0.03822225
   0.50516576  0.95959994  0.03822225
   0.05296578  0.05203364  0.14988276
   0.55296576  0.05203364  0.14988276
   0.30110292  0.05427145  0.55472571
   0.80110295  0.05427145  0.55472571
   0.15929411  0.81952477  0.90429894
   0.65929408  0.81952477  0.90429894
   0.26298223  0.97387143  0.63715534
   0.76298226  0.97387143  0.63715534
   0.14692838  0.68331576  0.80316133
   0.64692841  0.68331576  0.80316133
   0.25149701  0.99613956  0.75138102
   0.75149704  0.99613956  0.75138102
   0.00516576  0.45959997  0.53822224
   0.50516576  0.45959997  0.53822224
   0.05296578  0.55203370  0.64988279
   0.55296576  0.55203370  0.64988279
   0.05110293  0.44572852  0.94527429
   0.55110295  0.44572852  0.94527429
   0.40929411  0.68047523  0.59570106
   0.90929408  0.68047523  0.59570106
   0.01298222  0.52612857  0.86284466
   0.51298220  0.52612857  0.86284466
   0.39692841  0.81668424  0.69683867
   0.89692841  0.81668424  0.69683867
   0.00149702  0.50386044  0.74861898
   0.50149704  0.50386044  0.74861898
   0.25516576  0.04040003  0.96177776
   0.75516576  0.04040003  0.96177776
   0.30296579  0.94796630  0.85011721
   0.80296576  0.94796630  0.85011721
   0.05110293  0.94572855  0.44527426
   0.55110295  0.94572855  0.44527426
   0.40929411  0.18047523  0.09570108
   0.90929408  0.18047523  0.09570108
   0.01298222  0.02612859  0.36284466
   0.51298220  0.02612859  0.36284466
   0.39692841  0.31668424  0.19683867
   0.89692841  0.31668424  0.19683867
   0.00149702  0.00386047  0.24861899
   0.50149704  0.00386047  0.24861899
   0.25516576  0.54040006  0.46177773
   0.75516576  0.54040006  0.46177773
   0.30296579  0.44796636  0.35011724
   0.80296576  0.44796636  0.35011724
   0.05382422  0.44150432  0.05341271
   0.55382421  0.44150432  0.05341271
   0.41062960  0.68102013  0.40372523
   0.91062963  0.68102013  0.40372523
   0.01437744  0.52612005  0.13734181
   0.51437741  0.52612005  0.13734181
   0.39662219  0.81244629  0.30415469
   0.89662216  0.81244629  0.30415469
   0.00120880  0.50592419  0.25123835
   0.50120879  0.50592419  0.25123835
   0.25295234  0.04471573  0.03927933
   0.75295234  0.04471573  0.03927933
   0.30313157  0.94263349  0.15041517
   0.80313157  0.94263349  0.15041517
   0.05382422  0.94150429  0.55341275
   0.55382421  0.94150429  0.55341275
   0.41062960  0.18102015  0.90372526
   0.91062963  0.18102015  0.90372526
   0.01437744  0.02612002  0.63734178
   0.51437741  0.02612002  0.63734178
   0.39662219  0.31244632  0.80415466
   0.89662216  0.31244632  0.80415466
   0.00120880  0.00592419  0.75123835
   0.50120879  0.00592419  0.75123835
   0.25295234  0.54471573  0.53927930
   0.75295234  0.54471573  0.53927930
   0.30313157  0.44263349  0.65041520
   0.80313157  0.44263349  0.65041520
   0.30382421  0.55849571  0.94658725
   0.80382421  0.55849571  0.94658725
   0.16062959  0.31897987  0.59627474
   0.66062957  0.31897987  0.59627474
   0.26437741  0.47387998  0.86265822
   0.76437741  0.47387998  0.86265822
   0.14662221  0.18755371  0.69584534
   0.64662222  0.18755371  0.69584534
   0.25120882  0.49407581  0.74876165
   0.75120879  0.49407581  0.74876165
   0.00295234  0.95528427  0.96072070
   0.50295234  0.95528427  0.96072070
   0.05313157  0.05736649  0.84958480
   0.55313157  0.05736649  0.84958480
   0.30382421  0.05849567  0.44658731
   0.80382421  0.05849567  0.44658731
   0.16062959  0.81897987  0.09627475
   0.66062957  0.81897987  0.09627475
   0.26437741  0.97387995  0.36265819
   0.76437741  0.97387995  0.36265819
   0.14662221  0.68755371  0.19584529
   0.64662222  0.68755371  0.19584529
   0.25120882  0.99407581  0.24876162
   0.75120879  0.99407581  0.24876162
   0.00295234  0.45528430  0.46072070
   0.50295234  0.45528430  0.46072070
   0.05313157  0.55736651  0.34958486
   0.55313157  0.55736651  0.34958486
   0.15934857  0.16258792  0.50017193
   0.65934854  0.16258792  0.50017193
   0.15934857  0.66258798  1.00017195
   0.65934854  0.66258798  1.00017195
   0.40934857  0.83741202  0.49982805
   0.90934854  0.83741202  0.49982805
   0.40934857  0.33741208 -0.00017195
   0.90934854  0.33741208 -0.00017195
   0.14676324  0.24863109  0.34534526
   0.64676322  0.24863109  0.34534526
   0.14676324  0.74863109  0.84534529
   0.64676322  0.74863109  0.84534529