BiTiFeO                                 
           1
    10.959069    0.000000    0.000000
     0.000000    5.473859    0.001472
     0.000000    0.073107   40.670794
   Bi   Ti   O    Fe
  40  24 120   8
Direct configuration=     1
   0.12581734  0.24552768  0.10456018
   0.62581736  0.24552768  0.10456018
   0.11884221  0.27533320  0.21951799
   0.61884218  0.27533320  0.21951799
   0.12581734  0.74552768  0.60456020
   0.62581736  0.74552768  0.60456020
   0.11884221  0.77533323  0.71951795
   0.61884218  0.77533323  0.71951795
   0.37581733  0.75447232  0.89543980
   0.87581730  0.75447232  0.89543980
   0.36884218  0.72466677  0.78048205
   0.86884218  0.72466677  0.78048205
   0.37581733  0.25447232  0.39543983
   0.87581730  0.25447232  0.39543983
   0.36884218  0.22466679  0.28048199
   0.86884218  0.22466679  0.28048199
   0.37389028  0.75425547  0.10488448
   0.87389028  0.75425547  0.10488448
   0.36734301  0.72707325  0.21940872
   0.86734301  0.72707325  0.21940872
   0.37389028  0.25425550  0.60488451
   0.87389028  0.25425550  0.60488451
   0.36734301  0.22707324  0.71940875
   0.86734301  0.22707324  0.71940875
   0.12389029  0.24574450  0.89511549
   0.62389028  0.24574450  0.89511549
   0.11734302  0.27292678  0.78059125
   0.61734301  0.27292678  0.78059125
   0.12389029  0.74574453  0.39511553
   0.62389028  0.74574453  0.39511553
   0.11734302  0.77292675  0.28059128
   0.61734301  0.77292675  0.28059128
   0.12124083  0.24192810  0.00106251
   0.62124085  0.24192810  0.00106251
   0.12124083  0.74192810  0.50106251
   0.62124085  0.74192810  0.50106251
   0.37124082  0.75807190  0.99893749
   0.87124085  0.75807190  0.99893749
   0.37124082  0.25807190  0.49893743
   0.87124085  0.25807190  0.49893743
   0.14778419  0.25003338  0.34690401
   0.64778417  0.25003338  0.34690401
   0.14778419  0.75003338  0.84690404
   0.64778417  0.75003338  0.84690404
   0.39737403  0.74971396  0.34751427
   0.89737403  0.74971396  0.34751427
   0.39737403  0.24971396  0.84751427
   0.89737403  0.24971396  0.84751427
   0.39778417  0.74996662  0.65309596
   0.89778417  0.74996662  0.65309596
   0.39778417  0.24996664  0.15309598
   0.89778417  0.24996664  0.15309598
   0.14737405  0.25028604  0.65248573
   0.64737403  0.25028604  0.65248573
   0.14737405  0.75028604  0.15248573
   0.64737403  0.75028604  0.15248573
   0.14572605  0.24496144  0.45021892
   0.64572608  0.24496144  0.45021892
   0.14572605  0.74496144  0.95021892
   0.64572608  0.74496144  0.95021892
   0.39572605  0.75503856  0.54978108
   0.89572608  0.75503856  0.54978108
   0.39572605  0.25503856  0.04978108
   0.89572608  0.25503856  0.04978108
   0.30398616  0.55333757  0.05623510
   0.80398619  0.55333757  0.05623510
   0.16037145  0.32244712  0.40269166
   0.66037142  0.32244712  0.40269166
   0.26384732  0.47232899  0.13806446
   0.76384735  0.47232899  0.13806446
   0.14598581  0.18621907  0.30358261
   0.64598584  0.18621907  0.30358261
   0.25139269  0.49499974  0.25136027
   0.75139272  0.49499974  0.25136027
   0.00183105  0.96418035  0.03809405
   0.50183105  0.96418035  0.03809405
   0.05208983  0.05360783  0.15095773
   0.55208981  0.05360783  0.15095773
   0.30398616  0.05333758  0.55623508
   0.80398619  0.05333758  0.55623508
   0.16037145  0.82244712  0.90269166
   0.66037142  0.82244712  0.90269166
   0.26384732  0.97232902  0.63806444
   0.76384735  0.97232902  0.63806444
   0.14598581  0.68621904  0.80358261
   0.64598584  0.68621904  0.80358261
   0.25139269  0.99499977  0.75136030
   0.75139272  0.99499977  0.75136030
   0.00183105  0.46418038  0.53809404
   0.50183105  0.46418038  0.53809404
   0.05208983  0.55360788  0.65095776
   0.55208981  0.55360788  0.65095776
   0.05398618  0.44666240  0.94376492
   0.55398619  0.44666240  0.94376492
   0.41037145  0.67755288  0.59730834
   0.91037142  0.67755288  0.59730834
   0.01384731  0.52767098  0.86193556
   0.51384729  0.52767098  0.86193556
   0.39598584  0.81378096  0.69641739
   0.89598584  0.81378096  0.69641739
   0.00139270  0.50500023  0.74863970
   0.50139272  0.50500023  0.74863970
   0.25183105  0.03581963  0.96190596
   0.75183105  0.03581963  0.96190596
   0.30208984  0.94639212  0.84904224
   0.80208981  0.94639212  0.84904224
   0.05398618  0.94666243  0.44376490
   0.55398619  0.94666243  0.44376490
   0.41037145  0.17755288  0.09730835
   0.91037142  0.17755288  0.09730835
   0.01384731  0.02767100  0.36193556
   0.51384729  0.02767100  0.36193556
   0.39598584  0.31378096  0.19641739
   0.89598584  0.31378096  0.19641739
   0.00139270  0.00500026  0.24863972
   0.50139272  0.00500026  0.24863972
   0.25183105  0.53581965  0.46190593
   0.75183105  0.53581965  0.46190593
   0.30208984  0.44639218  0.34904227
   0.80208981  0.44639218  0.34904227
   0.05373246  0.42657372  0.05429961
   0.55373246  0.42657372  0.05429961
   0.41462371  0.67528647  0.40033671
   0.91462374  0.67528647  0.40033671
   0.01342812  0.52419931  0.13827106
   0.51342809  0.52419931  0.13827106
   0.39733556  0.81472349  0.30391791
   0.89733553  0.81472349  0.30391791
   0.00137807  0.50483209  0.25127208
   0.50137806  0.50483209  0.25127208
   0.25423092  0.05460011  0.03958693
   0.75423092  0.05460011  0.03958693
   0.30389983  0.94555801  0.15167758
   0.80389983  0.94555801  0.15167758
   0.05373246  0.92657369  0.55429965
   0.55373246  0.92657369  0.55429965
   0.41462371  0.17528649  0.90033674
   0.91462374  0.17528649  0.90033674
   0.01342812  0.02419928  0.63827103
   0.51342809  0.02419928  0.63827103
   0.39733556  0.31472352  0.80391788
   0.89733553  0.31472352  0.80391788
   0.00137807  0.00483209  0.75127208
   0.50137806  0.00483209  0.75127208
   0.25423092  0.55460012  0.53958690
   0.75423092  0.55460012  0.53958690
   0.30389983  0.44555801  0.65167761
   0.80389983  0.44555801  0.65167761
   0.30373246  0.57342631  0.94570035
   0.80373246  0.57342631  0.94570035
   0.16462369  0.32471353  0.59966326
   0.66462368  0.32471353  0.59966326
   0.26342809  0.47580072  0.86172897
   0.76342809  0.47580072  0.86172897
   0.14733557  0.18527651  0.69608212
   0.64733559  0.18527651  0.69608212
   0.25137809  0.49516791  0.74872792
   0.75137806  0.49516791  0.74872792
   0.00423092  0.94539988  0.96041310
   0.50423092  0.94539988  0.96041310
   0.05389983  0.05444197  0.84832239
   0.55389983  0.05444197  0.84832239
   0.30373246  0.07342626  0.44570041
   0.80373246  0.07342626  0.44570041
   0.16462369  0.82471353  0.09966327
   0.66462368  0.82471353  0.09966327
   0.26342809  0.97580069  0.36172894
   0.76342809  0.97580069  0.36172894
   0.14733557  0.68527651  0.19608207
   0.64733559  0.68527651  0.19608207
   0.25137809  0.99516791  0.24872789
   0.75137806  0.99516791  0.24872789
   0.00423092  0.44539991  0.46041310
   0.50423092  0.44539991  0.46041310
   0.05389983  0.55444199  0.34832245
   0.55389983  0.55444199  0.34832245
   0.15875485  0.15670252  0.49889919
   0.65875483  0.15670252  0.49889919
   0.15875485  0.65670258  0.99889922
   0.65875483  0.65670258  0.99889922
   0.40875485  0.84329742  0.50110078
   0.90875483  0.84329742  0.50110078
   0.40875485  0.34329748  0.00110078
   0.90875483  0.34329748  0.00110078
   0.39509413  0.75150693  0.45036468
   0.89509416  0.75150693  0.45036468
   0.39509413  0.25150693  0.95036465
   0.89509416  0.25150693  0.95036465
   0.14509413  0.24849309  0.54963535
   0.64509416  0.24849309  0.54963535
   0.14509413  0.74849307  0.04963534
   0.64509416  0.74849307  0.04963534
BiTiFeO                                 
           1
    11.003322    0.000000    0.000000
     0.000000    5.496905   -0.000615
     0.000000    0.057872   40.843701
   Bi   Ti   O    Fe
  40  24 120   8
Direct configuration=     2
   0.12589243  0.24577491  0.10434886
   0.62589244  0.24577491  0.10434886
   0.11880907  0.27527317  0.21951303
   0.61880905  0.27527317  0.21951303
   0.12589243  0.74577491  0.60434887
   0.62589244  0.74577491  0.60434887
   0.11880907  0.77527320  0.71951298
   0.61880905  0.77527320  0.71951298
   0.37589241  0.75422509  0.89565113
   0.87589238  0.75422509  0.89565113
   0.36880905  0.72472680  0.78048702
   0.86880905  0.72472680  0.78048702
   0.37589241  0.25422509  0.39565116
   0.87589238  0.25422509  0.39565116
   0.36880905  0.22472682  0.28048696
   0.86880905  0.22472682  0.28048696
   0.37369131  0.75372486  0.10465203
   0.87369131  0.75372486  0.10465203
   0.36731788  0.72706099  0.21940202
   0.86731788  0.72706099  0.21940202
   0.37369131  0.25372489  0.60465205
   0.87369131  0.25372489  0.60465205
   0.36731788  0.22706097  0.71940205
   0.86731788  0.22706097  0.71940205
   0.12369132  0.24627511  0.89534795
   0.62369131  0.24627511  0.89534795
   0.11731788  0.27293904  0.78059795
   0.61731788  0.27293904  0.78059795
   0.12369132  0.74627514  0.39534798
   0.62369131  0.74627514  0.39534798
   0.11731788  0.77293901  0.28059798
   0.61731788  0.77293901  0.28059798
   0.12160454  0.24101929  0.00108092
   0.62160456  0.24101929  0.00108092
   0.12160454  0.74101929  0.50108092
   0.62160456  0.74101929  0.50108092
   0.37160453  0.75898071  0.99891908
   0.87160456  0.75898071  0.99891908
   0.37160453  0.25898071  0.49891902
   0.87160456  0.25898071  0.49891902
   0.14777287  0.24993816  0.34693535
   0.64777286  0.24993816  0.34693535
   0.14777287  0.74993816  0.84693538
   0.64777286  0.74993816  0.84693538
   0.39734666  0.75004416  0.34742914
   0.89734666  0.75004416  0.34742914
   0.39734666  0.25004416  0.84742914
   0.89734666  0.25004416  0.84742914
   0.39777286  0.75006184  0.65306462
   0.89777286  0.75006184  0.65306462
   0.39777286  0.25006186  0.15306464
   0.89777286  0.25006186  0.15306464
   0.14734667  0.24995584  0.65257086
   0.64734666  0.24995584  0.65257086
   0.14734667  0.74995584  0.15257086
   0.64734666  0.74995584  0.15257086
   0.14537522  0.24513301  0.45018498
   0.64537525  0.24513301  0.45018498
   0.14537522  0.74513301  0.95018498
   0.64537525  0.74513301  0.95018498
   0.39537522  0.75486699  0.54981502
   0.89537525  0.75486699  0.54981502
   0.39537522  0.25486699  0.04981502
   0.89537525  0.25486699  0.04981502
   0.30186678  0.55683836  0.05609444
   0.80186681  0.55683836  0.05609444
   0.16044056  0.32235690  0.40263916
   0.66044053  0.32235690  0.40263916
   0.26386686  0.47235586  0.13809782
   0.76386689  0.47235586  0.13809782
   0.14596908  0.18623153  0.30357057
   0.64596911  0.18623153  0.30357057
   0.25136445  0.49502976  0.25135407
   0.75136448  0.49502976  0.25135407
   0.00459059  0.95936365  0.03829435
   0.50459059  0.95936365  0.03829435
   0.05214012  0.05347271  0.15097627
   0.55214009  0.05347271  0.15097627
   0.30186678  0.05683836  0.55609442
   0.80186681  0.05683836  0.55609442
   0.16044056  0.82235690  0.90263916
   0.66044053  0.82235690  0.90263916
   0.26386686  0.97235589  0.63809781
   0.76386689  0.97235589  0.63809781
   0.14596908  0.68623150  0.80357057
   0.64596911  0.68623150  0.80357057
   0.25136445  0.99502979  0.75135410
   0.75136448  0.99502979  0.75135410
   0.00459059  0.45936368  0.53829434
   0.50459059  0.45936368  0.53829434
   0.05214012  0.55347276  0.65097630
   0.55214009  0.55347276  0.65097630
   0.05186679  0.44316161  0.94390558
   0.55186681  0.44316161  0.94390558
   0.41044056  0.67764310  0.59736084
   0.91044053  0.67764310  0.59736084
   0.01386685  0.52764411  0.86190219
   0.51386683  0.52764411  0.86190219
   0.39596911  0.81376850  0.69642943
   0.89596911  0.81376850  0.69642943
   0.00136445  0.50497021  0.74864590
   0.50136448  0.50497021  0.74864590
   0.25459059  0.04063633  0.96170566
   0.75459059  0.04063633  0.96170566
   0.30214012  0.94652724  0.84902370
   0.80214009  0.94652724  0.84902370
   0.05186679  0.94316164  0.44390555
   0.55186681  0.94316164  0.44390555
   0.41044056  0.17764310  0.09736086
   0.91044053  0.17764310  0.09736086
   0.01386685  0.02764413  0.36190219
   0.51386683  0.02764413  0.36190219
   0.39596911  0.31376850  0.19642943
   0.89596911  0.31376850  0.19642943
   0.00136445  0.00497024  0.24864592
   0.50136448  0.00497024  0.24864592
   0.25459059  0.54063635  0.46170563
   0.75459059  0.54063635  0.46170563
   0.30214012  0.44652730  0.34902373
   0.80214009  0.44652730  0.34902373
   0.05613027  0.43556967  0.05427883
   0.55613026  0.43556967  0.05427883
   0.41404178  0.67644115  0.40142903
   0.91404181  0.67644115  0.40142903
   0.01350377  0.52427958  0.13828302
   0.51350374  0.52427958  0.13828302
   0.39733899  0.81463240  0.30393530
   0.89733896  0.81463240  0.30393530
   0.00134611  0.50483457  0.25126793
   0.50134610  0.50483457  0.25126793
   0.25227700  0.04835795  0.03964061
   0.75227700  0.04835795  0.03964061
   0.30375025  0.94545524  0.15167077
   0.80375025  0.94545524  0.15167077
   0.05613027  0.93556964  0.55427887
   0.55613026  0.93556964  0.55427887
   0.41404178  0.17644116  0.90142906
   0.91404181  0.17644116  0.90142906
   0.01350377  0.02427955  0.63828299
   0.51350374  0.02427955  0.63828299
   0.39733899  0.31463243  0.80393527
   0.89733896  0.31463243  0.80393527
   0.00134611  0.00483458  0.75126793
   0.50134610  0.00483458  0.75126793
   0.25227700  0.54835795  0.53964058
   0.75227700  0.54835795  0.53964058
   0.30375025  0.44545524  0.65167080
   0.80375025  0.44545524  0.65167080
   0.30613026  0.56443036  0.94572113
   0.80613026  0.56443036  0.94572113
   0.16404177  0.32355885  0.59857094
   0.66404175  0.32355885  0.59857094
   0.26350374  0.47572045  0.86171701
   0.76350374  0.47572045  0.86171701
   0.14733900  0.18536760  0.69606473
   0.64733902  0.18536760  0.69606473
   0.25134613  0.49516543  0.74873207
   0.75134610  0.49516543  0.74873207
   0.00227701  0.95164205  0.96035942
   0.50227700  0.95164205  0.96035942
   0.05375026  0.05454474  0.84832920
   0.55375025  0.05454474  0.84832920
   0.30613026  0.06443031  0.44572119
   0.80613026  0.06443031  0.44572119
   0.16404177  0.82355885  0.09857095
   0.66404175  0.82355885  0.09857095
   0.26350374  0.97572042  0.36171698
   0.76350374  0.97572042  0.36171698
   0.14733900  0.68536760  0.19606468
   0.64733902  0.68536760  0.19606468
   0.25134613  0.99516543  0.24873204
   0.75134610  0.99516543  0.24873204
   0.00227701  0.45164208  0.46035942
   0.50227700  0.45164208  0.46035942
   0.05375026  0.55454476  0.34832926
   0.55375025  0.55454476  0.34832926
   0.15894910  0.15841986  0.49969433
   0.65894907  0.15841986  0.49969433
   0.15894910  0.65841992  0.99969436
   0.65894907  0.65841992  0.99969436
   0.40894910  0.84158008  0.50030564
   0.90894907  0.84158008  0.50030564
   0.40894910  0.34158014  0.00030564
   0.90894907  0.34158014  0.00030564
   0.39461424  0.75268055  0.45017489
   0.89461427  0.75268055  0.45017489
   0.39461424  0.25268055  0.95017486
   0.89461427  0.25268055  0.95017486
   0.14461424  0.24731947  0.54982514
   0.64461427  0.24731947  0.54982514
   0.14461424  0.74731945  0.04982513
   0.64461427  0.74731945  0.04982513
BiTiFeO                                 
           1
    11.000779    0.000000    0.000000
     0.000000    5.494813   -0.001573
     0.000000    0.050728   40.756808
   Bi   Ti   O    Fe
  40  24 120   8
Direct configuration=     3
   0.12627085  0.24592937  0.10415642
   0.62627087  0.24592937  0.10415642
   0.11892533  0.27468342  0.21934472
   0.61892531  0.27468342  0.21934472
   0.12627085  0.74592937  0.60415644
   0.62627087  0.74592937  0.60415644
   0.11892533  0.77468345  0.71934468
   0.61892531  0.77468345  0.71934468
   0.37627084  0.75407063  0.89584356
   0.87627081  0.75407063  0.89584356
   0.36892531  0.72531655  0.78065532
   0.86892531  0.72531655  0.78065532
   0.37627084  0.25407063  0.39584359
   0.87627081  0.25407063  0.39584359
   0.36892531  0.22531656  0.28065526
   0.86892531  0.22531656  0.28065526
   0.37378768  0.75324770  0.10444428
   0.87378768  0.75324770  0.10444428
   0.36751241  0.72752856  0.21922973
   0.86751241  0.72752856  0.21922973
   0.37378768  0.25324773  0.60444430
   0.87378768  0.25324773  0.60444430
   0.36751241  0.22752855  0.71922976
   0.86751241  0.22752855  0.71922976
   0.12378768  0.24675227  0.89555570
   0.62378768  0.24675227  0.89555570
   0.11751241  0.27247147  0.78077024
   0.61751241  0.27247147  0.78077024
   0.12378768  0.74675230  0.39555573
   0.62378768  0.74675230  0.39555573
   0.11751241  0.77247144  0.28077027
   0.61751241  0.77247144  0.28077027
   0.12180392  0.24064475  0.00103312
   0.62180394  0.24064475  0.00103312
   0.12180392  0.74064475  0.50103312
   0.62180394  0.74064475  0.50103312
   0.37180391  0.75935525  0.99896688
   0.87180394  0.75935525  0.99896688
   0.37180391  0.25935525  0.49896682
   0.87180394  0.25935525  0.49896682
   0.14782812  0.25014397  0.34706399
   0.64782810  0.25014397  0.34706399
   0.14782812  0.75014397  0.84706402
   0.64782810  0.75014397  0.84706402
   0.39731974  0.74980837  0.34765213
   0.89731974  0.74980837  0.34765213
   0.39731974  0.24980837  0.84765213
   0.89731974  0.24980837  0.84765213
   0.39782810  0.74985603  0.65293598
   0.89782810  0.74985603  0.65293598
   0.39782810  0.24985604  0.15293600
   0.89782810  0.24985604  0.15293600
   0.14731975  0.25019163  0.65234787
   0.64731974  0.25019163  0.65234787
   0.14731975  0.75019163  0.15234787
   0.64731974  0.75019163  0.15234787
   0.14518079  0.24488225  0.45041348
   0.64518082  0.24488225  0.45041348
   0.14518079  0.74488225  0.95041348
   0.64518082  0.74488225  0.95041348
   0.39518079  0.75511775  0.54958652
   0.89518082  0.75511775  0.54958652
   0.39518079  0.25511775  0.04958652
   0.89518082  0.25511775  0.04958652
   0.30220195  0.55559670  0.05599414
   0.80220198  0.55559670  0.05599414
   0.16040507  0.32167157  0.40265903
   0.66040504  0.32167157  0.40265903
   0.26376534  0.47237052  0.13810881
   0.76376537  0.47237052  0.13810881
   0.14588776  0.18618741  0.30334534
   0.64588779  0.18618741  0.30334534
   0.25127839  0.49508577  0.25138467
   0.75127842  0.49508577  0.25138467
   0.00448150  0.96001360  0.03843471
   0.50448150  0.96001360  0.03843471
   0.05216769  0.05338146  0.15101707
   0.55216767  0.05338146  0.15101707
   0.30220195  0.05559671  0.55599412
   0.80220198  0.05559671  0.55599412
   0.16040507  0.82167157  0.90265903
   0.66040504  0.82167157  0.90265903
   0.26376534  0.97237055  0.63810879
   0.76376537  0.97237055  0.63810879
   0.14588776  0.68618738  0.80334534
   0.64588779  0.68618738  0.80334534
   0.25127839  0.99508580  0.75138470
   0.75127842  0.99508580  0.75138470
   0.00448150  0.46001363  0.53843470
   0.50448150  0.46001363  0.53843470
   0.05216769  0.55338151  0.65101710
   0.55216767  0.55338151  0.65101710
   0.05220197  0.44440327  0.94400588
   0.55220198  0.44440327  0.94400588
   0.41040507  0.67832843  0.59734097
   0.91040504  0.67832843  0.59734097
   0.01376533  0.52762945  0.86189121
   0.51376531  0.52762945  0.86189121
   0.39588779  0.81381262  0.69665466
   0.89588779  0.81381262  0.69665466
   0.00127840  0.50491420  0.74861530
   0.50127842  0.50491420  0.74861530
   0.25448150  0.03998637  0.96156530
   0.75448150  0.03998637  0.96156530
   0.30216770  0.94661849  0.84898290
   0.80216767  0.94661849  0.84898290
   0.05220197  0.94440330  0.44400585
   0.55220198  0.94440330  0.44400585
   0.41040507  0.17832843  0.09734099
   0.91040504  0.17832843  0.09734099
   0.01376533  0.02762948  0.36189121
   0.51376531  0.02762948  0.36189121
   0.39588779  0.31381262  0.19665466
   0.89588779  0.31381262  0.19665466
   0.00127840  0.00491423  0.24861532
   0.50127842  0.00491423  0.24861532
   0.25448150  0.53998640  0.46156527
   0.75448150  0.53998640  0.46156527
   0.30216770  0.44661855  0.34898293
   0.80216767  0.44661855  0.34898293
   0.05537210  0.43631780  0.05430565
   0.55537209  0.43631780  0.05430565
   0.41372400  0.67676215  0.40161012
   0.91372403  0.67676215  0.40161012
   0.01348842  0.52435860  0.13829616
   0.51348839  0.52435860  0.13829616
   0.39725223  0.81469686  0.30366324
   0.89725220  0.81469686  0.30366324
   0.00125526  0.50483212  0.25129348
   0.50125525  0.50483212  0.25129348
   0.25296455  0.04799677  0.03972187
   0.75296455  0.04799677  0.03972187
   0.30354498  0.94527455  0.15167965
   0.80354498  0.94527455  0.15167965
   0.05537210  0.93631777  0.55430569
   0.55537209  0.93631777  0.55430569
   0.41372400  0.17676216  0.90161015
   0.91372403  0.17676216  0.90161015
   0.01348842  0.02435857  0.63829613
   0.51348839  0.02435857  0.63829613
   0.39725223  0.31469689  0.80366321
   0.89725220  0.31469689  0.80366321
   0.00125526  0.00483213  0.75129348
   0.50125525  0.00483213  0.75129348
   0.25296455  0.54799677  0.53972184
   0.75296455  0.54799677  0.53972184
   0.30354498  0.44527455  0.65167968
   0.80354498  0.44527455  0.65167968
   0.30537209  0.56368223  0.94569431
   0.80537209  0.56368223  0.94569431
   0.16372398  0.32323785  0.59838985
   0.66372397  0.32323785  0.59838985
   0.26348839  0.47564143  0.86170387
   0.76348839  0.47564143  0.86170387
   0.14725225  0.18530314  0.69633679
   0.64725226  0.18530314  0.69633679
   0.25125528  0.49516788  0.74870652
   0.75125525  0.49516788  0.74870652
   0.00296455  0.95200323  0.96027816
   0.50296455  0.95200323  0.96027816
   0.05354498  0.05472543  0.84832032
   0.55354498  0.05472543  0.84832032
   0.30537209  0.06368219  0.44569437
   0.80537209  0.06368219  0.44569437
   0.16372398  0.82323785  0.09838987
   0.66372397  0.82323785  0.09838987
   0.26348839  0.97564140  0.36170384
   0.76348839  0.97564140  0.36170384
   0.14725225  0.68530314  0.19633674
   0.64725226  0.68530314  0.19633674
   0.25125528  0.99516788  0.24870649
   0.75125525  0.99516788  0.24870649
   0.00296455  0.45200326  0.46027816
   0.50296455  0.45200326  0.46027816
   0.05354498  0.55472545  0.34832038
   0.55354498  0.55472545  0.34832038
   0.15901428  0.15958538  0.49963965
   0.65901425  0.15958538  0.49963965
   0.15901428  0.65958544  0.99963968
   0.65901425  0.65958544  0.99963968
   0.40901428  0.84041456  0.50036032
   0.90901425  0.84041456  0.50036032
   0.40901428  0.34041462  0.00036032
   0.90901425  0.34041462  0.00036032
   0.39456758  0.75261667  0.45012637
   0.89456761  0.75261667  0.45012637
   0.39456758  0.25261667  0.95012634
   0.89456761  0.25261667  0.95012634
   0.14456758  0.24738335  0.54987366
   0.64456761  0.24738335  0.54987366
   0.14456758  0.74738333  0.04987365
   0.64456761  0.74738333  0.04987365
BiTiFeO                                 
           1
    10.981125    0.000000    0.000000
     0.000000    5.484324   -0.000454
     0.000000    0.058928   40.712669
   Bi   Ti   O    Fe
  40  24 120   8
Direct configuration=     4
   0.12639603  0.24605356  0.10403223
   0.62639604  0.24605356  0.10403223
   0.11895957  0.27435968  0.21934262
   0.61895955  0.27435968  0.21934262
   0.12639603  0.74605356  0.60403225
   0.62639604  0.74605356  0.60403225
   0.11895957  0.77435971  0.71934257
   0.61895955  0.77435971  0.71934257
   0.37639601  0.75394644  0.89596775
   0.87639598  0.75394644  0.89596775
   0.36895955  0.72564029  0.78065743
   0.86895955  0.72564029  0.78065743
   0.37639601  0.25394644  0.39596778
   0.87639598  0.25394644  0.39596778
   0.36895955  0.22564030  0.28065737
   0.86895955  0.22564030  0.28065737
   0.37373735  0.75285240  0.10431176
   0.87373735  0.75285240  0.10431176
   0.36758012  0.72774318  0.21922698
   0.86758012  0.72774318  0.21922698
   0.37373735  0.25285243  0.60431178
   0.87373735  0.25285243  0.60431178
   0.36758012  0.22774317  0.71922701
   0.86758012  0.22774317  0.71922701
   0.12373735  0.24714757  0.89568822
   0.62373735  0.24714757  0.89568822
   0.11758013  0.27225685  0.78077299
   0.61758012  0.27225685  0.78077299
   0.12373735  0.74714760  0.39568825
   0.62373735  0.74714760  0.39568825
   0.11758013  0.77225682  0.28077302
   0.61758012  0.77225682  0.28077302
   0.12199295  0.24031373  0.00099911
   0.62199298  0.24031373  0.00099911
   0.12199295  0.74031373  0.50099911
   0.62199298  0.74031373  0.50099911
   0.37199295  0.75968627  0.99900089
   0.87199298  0.75968627  0.99900089
   0.37199295  0.25968627  0.49900083
   0.87199298  0.25968627  0.49900083
   0.14788539  0.25012581  0.34688235
   0.64788537  0.25012581  0.34688235
   0.14788539  0.75012581  0.84688237
   0.64788537  0.75012581  0.84688237
   0.39729671  0.75000579  0.34745956
   0.89729671  0.75000579  0.34745956
   0.39729671  0.25000579  0.84745956
   0.89729671  0.25000579  0.84745956
   0.39788537  0.74987419  0.65311763
   0.89788537  0.74987419  0.65311763
   0.39788537  0.24987420  0.15311764
   0.89788537  0.24987420  0.15311764
   0.14729673  0.24999421  0.65254044
   0.64729671  0.24999421  0.65254044
   0.14729673  0.74999421  0.15254044
   0.64729671  0.74999421  0.15254044
   0.14516171  0.24472627  0.45056466
   0.64516174  0.24472627  0.45056466
   0.14516171  0.74472627  0.95056466
   0.64516174  0.74472627  0.95056466
   0.39516171  0.75527373  0.54943534
   0.89516174  0.75527373  0.54943534
   0.39516171  0.25527373  0.04943534
   0.89516174  0.25527373  0.04943534
   0.30241630  0.55436231  0.05584561
   0.80241633  0.55436231  0.05584561
   0.16041720  0.32103125  0.40276776
   0.66041717  0.32103125  0.40276776
   0.26367871  0.47241554  0.13805386
   0.76367874  0.47241554  0.13805386
   0.14583945  0.18661652  0.30347691
   0.64583948  0.18661652  0.30347691
   0.25126733  0.49514411  0.25138511
   0.75126736  0.49514411  0.25138511
   0.00450195  0.96068564  0.03856016
   0.50450195  0.96068564  0.03856016
   0.05224023  0.05333863  0.15096512
   0.55224021  0.05333863  0.15096512
   0.30241630  0.05436232  0.55584558
   0.80241633  0.05436232  0.55584558
   0.16041720  0.82103125  0.90276776
   0.66041717  0.82103125  0.90276776
   0.26367871  0.97241557  0.63805385
   0.76367874  0.97241557  0.63805385
   0.14583945  0.68661649  0.80347691
   0.64583948  0.68661649  0.80347691
   0.25126733  0.99514414  0.75138514
   0.75126736  0.99514414  0.75138514
   0.00450195  0.46068567  0.53856015
   0.50450195  0.46068567  0.53856015
   0.05224023  0.55333869  0.65096515
   0.55224021  0.55333869  0.65096515
   0.05241631  0.44563766  0.94415442
   0.55241633  0.44563766  0.94415442
   0.41041720  0.67896875  0.59723224
   0.91041717  0.67896875  0.59723224
   0.01367870  0.52758443  0.86194615
   0.51367868  0.52758443  0.86194615
   0.39583948  0.81338351  0.69652309
   0.89583948  0.81338351  0.69652309
   0.00126734  0.50485586  0.74861486
   0.50126736  0.50485586  0.74861486
   0.25450195  0.03931434  0.96143985
   0.75450195  0.03931434  0.96143985
   0.30224024  0.94666131  0.84903485
   0.80224021  0.94666131  0.84903485
   0.05241631  0.94563769  0.44415439
   0.55241633  0.94563769  0.44415439
   0.41041720  0.17896875  0.09723225
   0.91041717  0.17896875  0.09723225
   0.01367870  0.02758445  0.36194615
   0.51367868  0.02758445  0.36194615
   0.39583948  0.31338351  0.19652309
   0.89583948  0.31338351  0.19652309
   0.00126734  0.00485589  0.24861488
   0.50126736  0.00485589  0.24861488
   0.25450195  0.53931436  0.46143982
   0.75450195  0.53931436  0.46143982
   0.30224024  0.44666137  0.34903488
   0.80224021  0.44666137  0.34903488
   0.05459516  0.43744905  0.05431395
   0.55459515  0.43744905  0.05431395
   0.41343945  0.67708563  0.40186127
   0.91343948  0.67708563  0.40186127
   0.01348249  0.52446558  0.13824257
   0.51348246  0.52446558  0.13824257
   0.39718847  0.81422598  0.30380448
   0.89718844  0.81422598  0.30380448
   0.00124380  0.50480474  0.25129432
   0.50124379  0.50480474  0.25129432
   0.25365405  0.04737700  0.03976907
   0.75365405  0.04737700  0.03976907
   0.30336685  0.94514547  0.15158430
   0.80336685  0.94514547  0.15158430
   0.05459516  0.93744902  0.55431399
   0.55459515  0.93744902  0.55431399
   0.41343945  0.17708564  0.90186129
   0.91343948  0.17708564  0.90186129
   0.01348249  0.02446555  0.63824254
   0.51348246  0.02446555  0.63824254
   0.39718847  0.31422601  0.80380445
   0.89718844  0.31422601  0.80380445
   0.00124380  0.00480474  0.75129432
   0.50124379  0.00480474  0.75129432
   0.25365405  0.54737701  0.53976905
   0.75365405  0.54737701  0.53976905
   0.30336685  0.44514547  0.65158433
   0.80336685  0.44514547  0.65158433
   0.30459515  0.56255098  0.94568601
   0.80459515  0.56255098  0.94568601
   0.16343944  0.32291437  0.59813871
   0.66343942  0.32291437  0.59813871
   0.26348246  0.47553445  0.86175746
   0.76348246  0.47553445  0.86175746
   0.14718849  0.18577402  0.69619555
   0.64718850  0.18577402  0.69619555
   0.25124382  0.49519526  0.74870568
   0.75124379  0.49519526  0.74870568
   0.00365406  0.95262299  0.96023095
   0.50365405  0.95262299  0.96023095
   0.05336686  0.05485451  0.84841567
   0.55336685  0.05485451  0.84841567
   0.30459515  0.06255094  0.44568607
   0.80459515  0.06255094  0.44568607
   0.16343944  0.82291437  0.09813872
   0.66343942  0.82291437  0.09813872
   0.26348246  0.97553442  0.36175743
   0.76348246  0.97553442  0.36175743
   0.14718849  0.68577402  0.19619550
   0.64718850  0.68577402  0.19619550
   0.25124382  0.99519526  0.24870565
   0.75124379  0.99519526  0.24870565
   0.00365406  0.45262302  0.46023095
   0.50365405  0.45262302  0.46023095
   0.05336686  0.55485453  0.34841573
   0.55336685  0.55485453  0.34841573
   0.15918622  0.16077847  0.49961195
   0.65918619  0.16077847  0.49961195
   0.15918622  0.66077853  0.99961198
   0.65918619  0.66077853  0.99961198
   0.40918622  0.83922147  0.50038802
   0.90918619  0.83922147  0.50038802
   0.40918622  0.33922153  0.00038802
   0.90918619  0.33922153  0.00038802
   0.39447242  0.75267719  0.45006728
   0.89447245  0.75267719  0.45006728
   0.39447242  0.25267719  0.95006725
   0.89447245  0.25267719  0.95006725