       N       E                     dE             d eps       ncg     rms          rms(c)
DAV:   1     0.110874718439E+05    0.11087E+05   -0.39372E+05 43020   0.125E+03
DAV:   2     0.103529444338E+04   -0.10052E+05   -0.92542E+04 44364   0.350E+02
DAV:   3    -0.142715542255E+04   -0.24624E+04   -0.23820E+04 48552   0.180E+02
DAV:   4    -0.164949050380E+04   -0.22234E+03   -0.21890E+03 64980   0.605E+01
DAV:   5    -0.165798400576E+04   -0.84935E+01   -0.83744E+01 67608   0.136E+01
DAV:   6    -0.165837496548E+04   -0.39096E+00   -0.38736E+00 68028   0.250E+00
DAV:   7    -0.165839853301E+04   -0.23568E-01   -0.23454E-01 68304   0.617E-01
DAV:   8    -0.165840023928E+04   -0.17063E-02   -0.17021E-02 63120   0.142E-01
DAV:   9    -0.165840037467E+04   -0.13538E-03   -0.13517E-03 44052   0.413E-02
DAV:  10    -0.165840038663E+04   -0.11964E-04   -0.11928E-04 36144   0.158E-02
DAV:  11    -0.165840038908E+04   -0.24553E-05   -0.24403E-05 33708   0.100E-02
DAV:  12    -0.165840039037E+04   -0.12839E-05   -0.12762E-05 32664   0.720E-03    0.162E+02
DAV:  13    -0.123345262812E+04    0.42495E+03   -0.25378E+03 64092   0.823E+01    0.125E+02
DAV:  14    -0.136031366054E+04   -0.12686E+03   -0.12913E+03 71904   0.105E+02    0.151E+02
DAV:  15    -0.128367140157E+04    0.76642E+02   -0.88519E+02 68940   0.724E+01    0.957E+01
DAV:  16    -0.124307644040E+04    0.40595E+02   -0.26437E+02 66804   0.701E+01    0.125E+02
DAV:  17    -0.124605864282E+04   -0.29822E+01   -0.25315E+02 71148   0.496E+01    0.833E+01
DAV:  18    -0.123006377587E+04    0.15995E+02   -0.16179E+02 64608   0.331E+01    0.563E+01
DAV:  19    -0.123508174811E+04   -0.50180E+01   -0.40043E+01 65640   0.161E+01    0.457E+01
DAV:  20    -0.123154985813E+04    0.35319E+01   -0.14072E+01 68976   0.199E+01    0.439E+01
DAV:  21    -0.123448215244E+04   -0.29323E+01   -0.96103E+00 62712   0.456E+00    0.454E+01
DAV:  22    -0.123612375683E+04   -0.16416E+01   -0.95560E-01 63708   0.247E+00    0.442E+01
DAV:  23    -0.124216200555E+04   -0.60382E+01   -0.70676E+00 69948   0.825E+00    0.358E+01
DAV:  24    -0.124206962092E+04    0.92385E-01   -0.26628E+01 70176   0.141E+01    0.277E+01
DAV:  25    -0.124151115780E+04    0.55846E+00   -0.10700E+01 66948   0.110E+01    0.218E+01
DAV:  26    -0.124203032106E+04   -0.51916E+00   -0.27487E+00 62868   0.321E+00    0.198E+01
DAV:  27    -0.124339797803E+04   -0.13677E+01   -0.32173E+00 72408   0.544E+00    0.171E+01
DAV:  28    -0.124476533031E+04   -0.13674E+01   -0.55411E+00 67812   0.675E+00    0.149E+01
DAV:  29    -0.124607845052E+04   -0.13131E+01   -0.74498E+00 66900   0.883E+00    0.165E+01
DAV:  30    -0.124586658585E+04    0.21186E+00   -0.44779E+00 66756   0.628E+00    0.183E+01
DAV:  31    -0.124510434008E+04    0.76225E+00   -0.16167E+00 64776   0.347E+00    0.172E+01
DAV:  32    -0.124495792401E+04    0.14642E+00   -0.87338E-01 62376   0.210E+00    0.170E+01
DAV:  33    -0.124488978060E+04    0.68143E-01   -0.49390E-01 64776   0.175E+00    0.166E+01
DAV:  34    -0.124543829777E+04   -0.54852E+00   -0.40807E-01 71088   0.248E+00    0.165E+01
DAV:  35    -0.124737521636E+04   -0.19369E+01   -0.68752E-01 71208   0.326E+00    0.160E+01
DAV:  36    -0.124831851238E+04   -0.94330E+00   -0.82096E-01 70872   0.295E+00    0.139E+01
DAV:  37    -0.124807266620E+04    0.24585E+00   -0.73054E-01 67500   0.330E+00    0.110E+01
DAV:  38    -0.124765193532E+04    0.42073E+00   -0.57199E-01 69120   0.248E+00    0.891E+00
DAV:  39    -0.124736676434E+04    0.28517E+00   -0.55334E-01 70920   0.194E+00    0.698E+00
DAV:  40    -0.124735697945E+04    0.97849E-02   -0.25414E-01 62640   0.108E+00    0.693E+00
DAV:  41    -0.124736665706E+04   -0.96776E-02   -0.63037E-02 57672   0.366E-01    0.704E+00
DAV:  42    -0.124736613601E+04    0.52105E-03   -0.13945E-02 77040   0.274E-01    0.692E+00
DAV:  43    -0.124743071159E+04   -0.64576E-01   -0.86222E-02 69396   0.766E-01    0.733E+00
DAV:  44    -0.124743572228E+04   -0.50107E-02   -0.18560E-02 59964   0.258E-01    0.770E+00
DAV:  45    -0.124742142964E+04    0.14293E-01   -0.33727E-03 67008   0.154E-01    0.749E+00
DAV:  46    -0.124744226590E+04   -0.20836E-01   -0.13661E-01 77388   0.122E+00    0.680E+00
DAV:  47    -0.124754990807E+04   -0.10764E+00   -0.36005E-01 73728   0.248E+00    0.677E+00
DAV:  48    -0.124750014002E+04    0.49768E-01   -0.52338E-01 63960   0.131E+00    0.445E+00
DAV:  49    -0.124751810662E+04   -0.17967E-01   -0.28198E-01 64872   0.104E+00    0.513E+00
DAV:  50    -0.124745812003E+04    0.59987E-01   -0.68055E-02 62748   0.568E-01    0.371E+00
DAV:  51    -0.124746403444E+04   -0.59144E-02   -0.55269E-02 62832   0.376E-01    0.350E+00
DAV:  52    -0.124747111590E+04   -0.70815E-02   -0.43092E-02 64164   0.478E-01    0.355E+00
DAV:  53    -0.124746614380E+04    0.49721E-02   -0.45253E-02 66780   0.424E-01    0.375E+00
DAV:  54    -0.124747696076E+04   -0.10817E-01   -0.20708E-02 68328   0.365E-01    0.409E+00
DAV:  55    -0.124744520139E+04    0.31759E-01   -0.17496E-02 66900   0.403E-01    0.290E+00
DAV:  56    -0.124744774459E+04   -0.25432E-02   -0.43988E-02 71532   0.421E-01    0.289E+00
DAV:  57    -0.124744911475E+04   -0.13702E-02   -0.78611E-03 53220   0.135E-01    0.284E+00
DAV:  58    -0.124746155873E+04   -0.12444E-01   -0.63322E-02 74364   0.768E-01    0.383E+00
DAV:  59    -0.124745271460E+04    0.88441E-02   -0.13709E-02 57708   0.191E-01    0.304E+00
DAV:  60    -0.124744291441E+04    0.98002E-02   -0.55015E-03 71352   0.185E-01    0.278E+00
DAV:  61    -0.124744034174E+04    0.25727E-02   -0.12184E-02 66816   0.231E-01    0.220E+00
DAV:  62    -0.124743733565E+04    0.30061E-02   -0.78248E-03 68184   0.210E-01    0.213E+00
DAV:  63    -0.124743326453E+04    0.40711E-02   -0.13631E-02 71196   0.433E-01    0.204E+00
DAV:  64    -0.124743193061E+04    0.13339E-02   -0.13289E-02 67104   0.274E-01    0.110E+00
DAV:  65    -0.124743552156E+04   -0.35909E-02   -0.76937E-02 70476   0.353E-01    0.131E+00
DAV:  66    -0.124744609382E+04   -0.10572E-01   -0.14409E-02 63240   0.214E-01    0.211E+00
DAV:  67    -0.124744501211E+04    0.10817E-02   -0.87657E-03 66804   0.250E-01    0.186E+00
DAV:  68    -0.124745020050E+04   -0.51884E-02   -0.16493E-02 68376   0.335E-01    0.217E+00
DAV:  69    -0.124744207528E+04    0.81252E-02   -0.20948E-02 67860   0.363E-01    0.185E+00
DAV:  70    -0.124743727911E+04    0.47962E-02   -0.86630E-03 63888   0.190E-01    0.156E+00
DAV:  71    -0.124743484749E+04    0.24316E-02   -0.32775E-03 62748   0.100E-01    0.149E+00
DAV:  72    -0.124742923378E+04    0.56137E-02   -0.25425E-03 68796   0.168E-01    0.160E+00
DAV:  73    -0.124741956027E+04    0.96735E-02   -0.74826E-03 76452   0.249E-01    0.174E+00
DAV:  74    -0.124740723724E+04    0.12323E-01   -0.41297E-03 70656   0.222E-01    0.157E+00
DAV:  75    -0.124740300764E+04    0.42296E-02   -0.23120E-03 64824   0.851E-02    0.160E+00
DAV:  76    -0.124740379300E+04   -0.78536E-03   -0.32634E-04 38916   0.403E-02    0.158E+00
DAV:  77    -0.124740437327E+04   -0.58027E-03   -0.11703E-04 27780   0.312E-02    0.157E+00
DAV:  78    -0.124741068803E+04   -0.63148E-02   -0.11949E-03 45252   0.131E-01    0.131E+00
DAV:  79    -0.124742158332E+04   -0.10895E-01   -0.80141E-03 69768   0.226E-01    0.104E+00
DAV:  80    -0.124742975947E+04   -0.81761E-02   -0.40076E-03 63108   0.172E-01    0.932E-01
DAV:  81    -0.124743976271E+04   -0.10003E-01   -0.78009E-03 70524   0.259E-01    0.779E-01
DAV:  82    -0.124744760900E+04   -0.78463E-02   -0.88181E-03 71088   0.245E-01    0.646E-01
DAV:  83    -0.124745187594E+04   -0.42669E-02   -0.49413E-03 65868   0.169E-01    0.577E-01
DAV:  84    -0.124745376951E+04   -0.18936E-02   -0.16210E-03 49848   0.938E-02    0.535E-01
DAV:  85    -0.124745529506E+04   -0.15256E-02   -0.76498E-04 43320   0.736E-02    0.485E-01
DAV:  86    -0.124745701622E+04   -0.17212E-02   -0.82924E-04 46848   0.749E-02    0.465E-01
DAV:  87    -0.124745922718E+04   -0.22110E-02   -0.97967E-04 47820   0.939E-02    0.432E-01
DAV:  88    -0.124746540374E+04   -0.61766E-02   -0.72725E-03 68880   0.286E-01    0.489E-01
DAV:  89    -0.124746707793E+04   -0.16742E-02   -0.26144E-03 57156   0.797E-02    0.537E-01
DAV:  90    -0.124746797207E+04   -0.89413E-03   -0.21275E-04 34176   0.319E-02    0.577E-01
DAV:  91    -0.124746836983E+04   -0.39776E-03   -0.14002E-04 31740   0.191E-02    0.602E-01
DAV:  92    -0.124746768338E+04    0.68645E-03   -0.10590E-04 27744   0.402E-02    0.552E-01
DAV:  93    -0.124747003550E+04   -0.23521E-02   -0.62057E-04 34824   0.105E-01    0.675E-01
DAV:  94    -0.124746983311E+04    0.20240E-03   -0.49913E-04 39672   0.363E-02    0.655E-01
DAV:  95    -0.124746982898E+04    0.41280E-05   -0.57197E-05 25428   0.159E-02
   1 F= -.12474698E+04 E0= -.12473831E+04  d E =-.124747E+04  mag=    32.0177
       N       E                     dE             d eps       ncg     rms          rms(c)
DAV:   1    -0.124993266048E+04   -0.24628E+01   -0.14697E+03 43008   0.526E+01    0.191E+01
DAV:   2    -0.125170014711E+04   -0.17675E+01   -0.87620E+01 63372   0.199E+01    0.225E+01
DAV:   3    -0.125113802362E+04    0.56212E+00   -0.13167E+01 63924   0.929E+00    0.177E+01
DAV:   4    -0.125046048953E+04    0.67753E+00   -0.29720E+00 63420   0.606E+00    0.116E+01
DAV:   5    -0.125076589095E+04   -0.30540E+00   -0.53109E+00 63672   0.340E+00    0.174E+01
DAV:   6    -0.125094748608E+04   -0.18160E+00   -0.15261E+01 68184   0.635E+00    0.141E+01
DAV:   7    -0.125092879272E+04    0.18693E-01   -0.83710E-01 61332   0.193E+00    0.148E+01
DAV:   8    -0.125074373251E+04    0.18506E+00   -0.42234E+00 68892   0.500E+00    0.123E+01
DAV:   9    -0.125213483529E+04   -0.13911E+01   -0.11249E+01 69588   0.752E+00    0.105E+01
DAV:  10    -0.125165411791E+04    0.48072E+00   -0.18250E+01 67668   0.724E+00    0.106E+01
DAV:  11    -0.125107838238E+04    0.57574E+00   -0.43270E+00 62796   0.361E+00    0.933E+00
DAV:  12    -0.125069278816E+04    0.38559E+00   -0.47318E-01 68220   0.268E+00    0.809E+00
DAV:  13    -0.125042956464E+04    0.26322E+00   -0.19848E-01 71952   0.193E+00    0.712E+00
DAV:  14    -0.125024656431E+04    0.18300E+00   -0.22089E-01 71460   0.138E+00    0.592E+00
DAV:  15    -0.125012725338E+04    0.11931E+00   -0.18756E-01 66300   0.134E+00    0.394E+00
DAV:  16    -0.125006912358E+04    0.58130E-01   -0.34913E-01 68988   0.146E+00    0.105E+00
DAV:  17    -0.125006867583E+04    0.44775E-03   -0.17106E-01 60984   0.767E-01    0.756E-01
DAV:  18    -0.125007914658E+04   -0.10471E-01   -0.73414E-02 63504   0.623E-01    0.182E+00
DAV:  19    -0.125006937408E+04    0.97725E-02   -0.70755E-02 68976   0.522E-01    0.974E-01
DAV:  20    -0.125006732541E+04    0.20487E-02   -0.19445E-02 63672   0.326E-01    0.639E-01
DAV:  21    -0.125006589628E+04    0.14291E-02   -0.11574E-02 63036   0.278E-01    0.521E-01
DAV:  22    -0.125006713189E+04   -0.12356E-02   -0.86109E-03 63600   0.176E-01    0.644E-01
DAV:  23    -0.125006892066E+04   -0.17888E-02   -0.98722E-03 67680   0.366E-01    0.722E-01
DAV:  24    -0.125006813921E+04    0.78145E-03   -0.53012E-03 64428   0.192E-01    0.329E-01
DAV:  25    -0.125006811125E+04    0.27957E-04   -0.23031E-03 63144   0.121E-01    0.222E-01
DAV:  26    -0.125006850366E+04   -0.39240E-03   -0.19449E-03 62880   0.910E-02    0.139E-01
DAV:  27    -0.125006897094E+04   -0.46728E-03   -0.10774E-03 43596   0.803E-02    0.151E-01
DAV:  28    -0.125006943849E+04   -0.46755E-03   -0.10778E-03 47400   0.864E-02    0.121E-01
DAV:  29    -0.125006990484E+04   -0.46634E-03   -0.82433E-04 42948   0.721E-02    0.874E-02
DAV:  30    -0.125007037783E+04   -0.47300E-03   -0.76681E-04 44400   0.822E-02    0.129E-01
DAV:  31    -0.125007096768E+04   -0.58985E-03   -0.11132E-03 48792   0.923E-02    0.786E-02
DAV:  32    -0.125007136804E+04   -0.40036E-03   -0.63824E-04 41304   0.609E-02    0.819E-02
DAV:  33    -0.125007172485E+04   -0.35681E-03   -0.37628E-04 37260   0.585E-02    0.816E-02
DAV:  34    -0.125007220670E+04   -0.48185E-03   -0.88430E-04 45984   0.836E-02    0.869E-02
DAV:  35    -0.125007270575E+04   -0.49905E-03   -0.12210E-03 48036   0.102E-01    0.713E-02
DAV:  36    -0.125007333670E+04   -0.63094E-03   -0.48544E-03 61488   0.231E-01    0.795E-02
DAV:  37    -0.125007402054E+04   -0.68384E-03   -0.30740E-03 53760   0.148E-01    0.776E-02
DAV:  38    -0.125007441080E+04   -0.39026E-03   -0.93313E-04 43368   0.692E-02    0.662E-02
DAV:  39    -0.125007459812E+04   -0.18732E-03   -0.44199E-04 38304   0.779E-02    0.584E-02
DAV:  40    -0.125007475790E+04   -0.15978E-03   -0.10883E-03 48924   0.887E-02    0.582E-02
DAV:  41    -0.125007487972E+04   -0.12182E-03   -0.43894E-04 39060   0.412E-02    0.393E-02
DAV:  42    -0.125007492917E+04   -0.49453E-04   -0.72168E-05 27336   0.374E-02
   2 F= -.12500749E+04 E0= -.12500200E+04  d E =-.260510E+01  mag=    32.5215
       N       E                     dE             d eps       ncg     rms          rms(c)
DAV:   1    -0.125282158282E+04   -0.27467E+01   -0.14443E+02 43980   0.182E+01    0.117E+01
DAV:   2    -0.125154894188E+04    0.12726E+01   -0.14115E+01 62568   0.807E+00    0.115E+01
DAV:   3    -0.125120730865E+04    0.34163E+00   -0.33789E+00 63384   0.424E+00    0.684E+00
DAV:   4    -0.125133447840E+04   -0.12717E+00   -0.11693E+00 66612   0.374E+00    0.792E+00
DAV:   5    -0.125128959305E+04    0.44885E-01   -0.26121E+00 62952   0.509E+00    0.110E+01
DAV:   6    -0.125132793703E+04   -0.38344E-01   -0.89639E-01 63120   0.132E+00    0.118E+01
DAV:   7    -0.125181201997E+04   -0.48408E+00   -0.22637E+00 74100   0.259E+00    0.159E+01
DAV:   8    -0.125133461322E+04    0.47741E+00   -0.87632E+00 67920   0.400E+00    0.579E+00
DAV:   9    -0.125155454632E+04   -0.21993E+00   -0.79391E-01 67932   0.257E+00    0.610E+00
DAV:  10    -0.125169242151E+04   -0.13788E+00   -0.46134E+00 67632   0.301E+00    0.564E+00
DAV:  11    -0.125145768676E+04    0.23473E+00   -0.10340E+00 63864   0.205E+00    0.512E+00
DAV:  12    -0.125132891428E+04    0.12877E+00   -0.96530E-02 67068   0.140E+00    0.357E+00
DAV:  13    -0.125123852263E+04    0.90392E-01   -0.43052E-02 71100   0.917E-01    0.280E+00
DAV:  14    -0.125113842733E+04    0.10010E+00   -0.45714E-02 73620   0.127E+00    0.165E+00
DAV:  15    -0.125112452875E+04    0.13899E-01   -0.32754E-01 72504   0.121E+00    0.189E+00
DAV:  16    -0.125111935331E+04    0.51754E-02   -0.13846E-01 61488   0.682E-01    0.807E-01
DAV:  17    -0.125111781530E+04    0.15380E-02   -0.16647E-02 61752   0.245E-01    0.441E-01
DAV:  18    -0.125111921390E+04   -0.13986E-02   -0.51953E-03 66624   0.186E-01    0.730E-01
DAV:  19    -0.125111819789E+04    0.10160E-02   -0.10615E-02 68640   0.346E-01    0.565E-01
DAV:  20    -0.125111739672E+04    0.80117E-03   -0.22214E-03 59052   0.960E-02    0.406E-01
DAV:  21    -0.125111676033E+04    0.63639E-03   -0.16201E-03 61128   0.890E-02    0.190E-01
DAV:  22    -0.125111666108E+04    0.99257E-04   -0.11245E-03 31452   0.571E-02    0.105E-01
DAV:  23    -0.125111671006E+04   -0.48987E-04   -0.46594E-04 45096   0.351E-02
   3 F= -.12511167E+04 E0= -.12510465E+04  d E =-.104178E+01  mag=    32.5674
       N       E                     dE             d eps       ncg     rms          rms(c)
DAV:   1    -0.125148296199E+04   -0.36630E+00   -0.77495E+01 43008   0.127E+01    0.544E+00
DAV:   2    -0.125151553775E+04   -0.32576E-01   -0.52757E+00 62400   0.487E+00    0.676E+00
DAV:   3    -0.125142711418E+04    0.88424E-01   -0.76619E-01 63024   0.276E+00    0.507E+00
DAV:   4    -0.125139431827E+04    0.32796E-01   -0.19747E-01 65064   0.162E+00    0.320E+00
DAV:   5    -0.125139576321E+04   -0.14449E-02   -0.27633E-01 65016   0.143E+00    0.261E+00
DAV:   6    -0.125144921878E+04   -0.53456E-01   -0.81474E-01 65940   0.174E+00    0.215E+00
DAV:   7    -0.125141779705E+04    0.31422E-01   -0.50388E-01 61296   0.191E+00    0.226E+00
DAV:   8    -0.125139568720E+04    0.22110E-01   -0.66223E-02 64824   0.103E+00    0.122E+00
DAV:   9    -0.125139486768E+04    0.81952E-03   -0.68615E-02 70512   0.770E-01    0.800E-01
DAV:  10    -0.125139591531E+04   -0.10476E-02   -0.25750E-02 63444   0.438E-01    0.312E-01
DAV:  11    -0.125139645950E+04   -0.54419E-03   -0.61126E-03 62376   0.141E-01    0.250E-01
DAV:  12    -0.125139668821E+04   -0.22871E-03   -0.13491E-03 59952   0.684E-02    0.156E-01
DAV:  13    -0.125139691751E+04   -0.22930E-03   -0.62738E-04 35652   0.571E-02    0.124E-01
DAV:  14    -0.125139715057E+04   -0.23306E-03   -0.63362E-04 34116   0.716E-02    0.117E-01
DAV:  15    -0.125139734982E+04   -0.19925E-03   -0.45230E-04 36084   0.504E-02    0.917E-02
DAV:  16    -0.125139751494E+04   -0.16512E-03   -0.33690E-04 29556   0.393E-02    0.875E-02
DAV:  17    -0.125139771011E+04   -0.19517E-03   -0.61896E-04 28872   0.518E-02    0.708E-02
DAV:  18    -0.125139783804E+04   -0.12792E-03   -0.93535E-04 36936   0.591E-02    0.763E-02
DAV:  19    -0.125139791808E+04   -0.80043E-04   -0.66872E-04 34032   0.475E-02
   4 F= -.12513979E+04 E0= -.12513592E+04  d E =-.281208E+00  mag=    32.2034
       N       E                     dE             d eps       ncg     rms          rms(c)
DAV:   1    -0.125149601825E+04   -0.98180E-01   -0.27246E+01 43008   0.735E+00    0.172E+00
DAV:   2    -0.125157661099E+04   -0.80593E-01   -0.11364E+00 58440   0.194E+00    0.251E+00
DAV:   3    -0.125157328733E+04    0.33237E-02   -0.98655E-02 59868   0.550E-01    0.181E+00
DAV:   4    -0.125156527408E+04    0.80132E-02   -0.36105E-02 63348   0.339E-01    0.159E+00
DAV:   5    -0.125158974499E+04   -0.24471E-01   -0.23767E-01 67356   0.993E-01    0.137E+00
DAV:   6    -0.125156817696E+04    0.21568E-01   -0.30411E-01 65640   0.123E+00    0.103E+00
DAV:   7    -0.125156124627E+04    0.69307E-02   -0.12161E-01 60540   0.639E-01    0.758E-01
DAV:   8    -0.125156060111E+04    0.64516E-03   -0.33253E-02 62448   0.367E-01    0.466E-01
DAV:   9    -0.125155996282E+04    0.63829E-03   -0.56591E-03 61368   0.115E-01    0.360E-01
DAV:  10    -0.125155926292E+04    0.69990E-03   -0.24115E-03 64608   0.120E-01    0.286E-01
DAV:  11    -0.125155917969E+04    0.83223E-04   -0.14443E-03 59436   0.634E-02    0.207E-01
DAV:  12    -0.125155903660E+04    0.14309E-03   -0.85025E-04 48828   0.637E-02    0.154E-01
DAV:  13    -0.125155899524E+04    0.41363E-04   -0.59053E-04 46632   0.453E-02
   5 F= -.12515590E+04 E0= -.12515229E+04  d E =-.161077E+00  mag=    32.1418
       N       E                     dE             d eps       ncg     rms          rms(c)
DAV:   1    -0.125163961688E+04   -0.80580E-01   -0.47686E+01 43008   0.982E+00    0.280E+00
DAV:   2    -0.125170685202E+04   -0.67235E-01   -0.18376E+00 60696   0.247E+00    0.294E+00
DAV:   3    -0.125170015876E+04    0.66933E-02   -0.24450E-01 62304   0.123E+00    0.176E+00
DAV:   4    -0.125169349969E+04    0.66591E-02   -0.41155E-02 63756   0.365E-01    0.118E+00
DAV:   5    -0.125169212059E+04    0.13791E-02   -0.22254E-02 64860   0.346E-01    0.811E-01
DAV:   6    -0.125169059947E+04    0.15211E-02   -0.98010E-03 65688   0.272E-01    0.269E-01
DAV:   7    -0.125169139975E+04   -0.80027E-03   -0.66826E-03 63756   0.182E-01    0.219E-01
DAV:   8    -0.125169191843E+04   -0.51869E-03   -0.95442E-03 59328   0.208E-01    0.175E-01
DAV:   9    -0.125169167158E+04    0.24685E-03   -0.13775E-02 39792   0.203E-01    0.141E-01
DAV:  10    -0.125169149642E+04    0.17515E-03   -0.24809E-03 34044   0.108E-01    0.853E-02
DAV:  11    -0.125169168696E+04   -0.19054E-03   -0.82182E-04 53580   0.481E-02    0.666E-02
DAV:  12    -0.125169173317E+04   -0.46205E-04   -0.11205E-04 28476   0.277E-02
   6 F= -.12516917E+04 E0= -.12516627E+04  d E =-.132738E+00  mag=    32.0963
       N       E                     dE             d eps       ncg     rms          rms(c)
DAV:   1    -0.125182908460E+04   -0.13740E+00   -0.24480E+01 43152   0.712E+00    0.276E+00
DAV:   2    -0.125183671047E+04   -0.76259E-02   -0.12489E+00 61524   0.205E+00    0.273E+00
DAV:   3    -0.125182031979E+04    0.16391E-01   -0.14040E-01 60624   0.749E-01    0.143E+00
DAV:   4    -0.125181565002E+04    0.46698E-02   -0.39427E-02 64644   0.406E-01    0.117E+00
DAV:   5    -0.125181454218E+04    0.11078E-02   -0.13384E-02 63888   0.314E-01    0.629E-01
DAV:   6    -0.125181410771E+04    0.43447E-03   -0.10672E-02 66360   0.224E-01    0.256E-01
DAV:   7    -0.125181590562E+04   -0.17979E-02   -0.35339E-02 65616   0.373E-01    0.268E-01
DAV:   8    -0.125181413621E+04    0.17694E-02   -0.23758E-02 61776   0.333E-01    0.138E-01
DAV:   9    -0.125181406057E+04    0.75642E-04   -0.17504E-03 56976   0.108E-01    0.819E-02
DAV:  10    -0.125181415189E+04   -0.91315E-04   -0.62151E-04 49548   0.431E-02
   7 F= -.12518142E+04 E0= -.12517884E+04  d E =-.122419E+00  mag=    32.0696
       N       E                     dE             d eps       ncg     rms          rms(c)
DAV:   1    -0.125184134802E+04   -0.27287E-01   -0.10069E+01 43008   0.451E+00    0.137E+00
DAV:   2    -0.125186203285E+04   -0.20685E-01   -0.50220E-01 61056   0.129E+00    0.176E+00
DAV:   3    -0.125185497715E+04    0.70557E-02   -0.46609E-02 59256   0.410E-01    0.114E+00
DAV:   4    -0.125185152941E+04    0.34477E-02   -0.23581E-02 63144   0.269E-01    0.817E-01
DAV:   5    -0.125185241788E+04   -0.88848E-03   -0.31740E-02 62916   0.387E-01    0.459E-01
DAV:   6    -0.125185830079E+04   -0.58829E-02   -0.15730E-01 65928   0.795E-01    0.489E-01
DAV:   7    -0.125185015657E+04    0.81442E-02   -0.24126E-02 62808   0.537E-01    0.410E-01
DAV:   8    -0.125185031298E+04   -0.15641E-03   -0.47065E-03 62712   0.148E-01    0.201E-01
DAV:   9    -0.125185026796E+04    0.45016E-04   -0.88028E-04 58020   0.496E-02
   8 F= -.12518503E+04 E0= -.12518255E+04  d E =-.361161E-01  mag=    32.0569
       N       E                     dE             d eps       ncg     rms          rms(c)
DAV:   1    -0.125189397546E+04   -0.43662E-01   -0.61435E+00 43008   0.337E+00    0.115E+00
DAV:   2    -0.125191362505E+04   -0.19650E-01   -0.35003E-01 57156   0.105E+00    0.173E+00
DAV:   3    -0.125191134674E+04    0.22783E-02   -0.38644E-02 57900   0.350E-01    0.136E+00
DAV:   4    -0.125190693136E+04    0.44154E-02   -0.17037E-02 63228   0.230E-01    0.121E+00
DAV:   5    -0.125190820390E+04   -0.12725E-02   -0.30474E-02 63816   0.327E-01    0.760E-01
DAV:   6    -0.125190639660E+04    0.18073E-02   -0.65917E-03 65208   0.180E-01    0.500E-01
DAV:   7    -0.125190477480E+04    0.16218E-02   -0.11987E-02 63432   0.159E-01    0.282E-01
DAV:   8    -0.125190496343E+04   -0.18863E-03   -0.17203E-03 60936   0.851E-02    0.198E-01
DAV:   9    -0.125190496564E+04   -0.22125E-05   -0.28717E-04 36372   0.343E-02
   9 F= -.12519050E+04 E0= -.12518849E+04  d E =-.546977E-01  mag=    32.0429
       N       E                     dE             d eps       ncg     rms          rms(c)
DAV:   1    -0.125193483103E+04   -0.29868E-01   -0.13987E+01 43008   0.531E+00    0.127E+00
DAV:   2    -0.125196083818E+04   -0.26007E-01   -0.48758E-01 61920   0.127E+00    0.129E+00
DAV:   3    -0.125196052193E+04    0.31625E-03   -0.58691E-02 62748   0.586E-01    0.800E-01
DAV:   4    -0.125195908791E+04    0.14340E-02   -0.78860E-03 63072   0.155E-01    0.520E-01
DAV:   5    -0.125195878716E+04    0.30074E-03   -0.49681E-03 65052   0.168E-01    0.361E-01
DAV:   6    -0.125195867839E+04    0.10877E-03   -0.21925E-03 64296   0.113E-01    0.124E-01
DAV:   7    -0.125195886507E+04   -0.18668E-03   -0.10814E-03 60288   0.596E-02    0.754E-02
DAV:   8    -0.125195892725E+04   -0.62185E-04   -0.15407E-04 31572   0.387E-02
  10 F= -.12519589E+04 E0= -.12519455E+04  d E =-.539616E-01  mag=    32.0330
       N       E                     dE             d eps       ncg     rms          rms(c)
DAV:   1    -0.125199625028E+04   -0.37385E-01   -0.73902E+00 43008   0.385E+00    0.119E+00
DAV:   2    -0.125201193430E+04   -0.15684E-01   -0.32357E-01 58284   0.989E-01    0.132E+00
DAV:   3    -0.125200932296E+04    0.26113E-02   -0.33152E-02 59220   0.329E-01    0.789E-01
DAV:   4    -0.125200774129E+04    0.15817E-02   -0.14536E-02 64332   0.211E-01    0.637E-01
DAV:   5    -0.125200740662E+04    0.33467E-03   -0.43552E-03 59220   0.124E-01    0.313E-01
DAV:   6    -0.125200715932E+04    0.24730E-03   -0.31871E-03 64128   0.102E-01    0.170E-01
DAV:   7    -0.125200724688E+04   -0.87560E-04   -0.10710E-03 58596   0.523E-02    0.106E-01
DAV:   8    -0.125200725474E+04   -0.78598E-05   -0.90011E-05 27048   0.284E-02
  11 F= -.12520073E+04 E0= -.12519970E+04  d E =-.483275E-01  mag=    32.0250
       N       E                     dE             d eps       ncg     rms          rms(c)
DAV:   1    -0.125202881536E+04   -0.21568E-01   -0.87476E+00 43008   0.420E+00    0.131E+00
DAV:   2    -0.125204414861E+04   -0.15333E-01   -0.42339E-01 61764   0.122E+00    0.161E+00
DAV:   3    -0.125203775452E+04    0.63941E-02   -0.43552E-02 58764   0.393E-01    0.103E+00
DAV:   4    -0.125203503205E+04    0.27225E-02   -0.16866E-02 59136   0.178E-01    0.732E-01
DAV:   5    -0.125203408348E+04    0.94857E-03   -0.33170E-03 64488   0.173E-01    0.348E-01
DAV:   6    -0.125203385621E+04    0.22727E-03   -0.37442E-03 64848   0.127E-01    0.195E-01
DAV:   7    -0.125203391068E+04   -0.54477E-04   -0.86936E-04 56916   0.676E-02
  12 F= -.12520339E+04 E0= -.12520252E+04  d E =-.266559E-01  mag=    32.0201
       N       E                     dE             d eps       ncg     rms          rms(c)
DAV:   1    -0.125206327429E+04   -0.29418E-01   -0.45226E+00 43008   0.292E+00    0.114E+00
DAV:   2    -0.125207398764E+04   -0.10713E-01   -0.28363E-01 57336   0.994E-01    0.155E+00
DAV:   3    -0.125207061505E+04    0.33726E-02   -0.35929E-02 55800   0.335E-01    0.113E+00
DAV:   4    -0.125206735912E+04    0.32559E-02   -0.19204E-02 60240   0.213E-01    0.863E-01
DAV:   5    -0.125206696390E+04    0.39522E-03   -0.85865E-03 63696   0.199E-01    0.452E-01
DAV:   6    -0.125206627488E+04    0.68902E-03   -0.34742E-03 65688   0.119E-01    0.279E-01
DAV:   7    -0.125206615166E+04    0.12322E-03   -0.22688E-03 55800   0.654E-02    0.155E-01
DAV:   8    -0.125206611737E+04    0.34290E-04   -0.35206E-04 40896   0.381E-02
  13 F= -.12520661E+04 E0= -.12520622E+04  d E =-.322067E-01  mag=    32.0151
       N       E                     dE             d eps       ncg     rms          rms(c)
DAV:   1    -0.125208264615E+04   -0.16494E-01   -0.70116E+00 43008   0.374E+00    0.664E-01
DAV:   2    -0.125209928994E+04   -0.16644E-01   -0.21217E-01 61212   0.797E-01    0.623E-01
DAV:   3    -0.125209918358E+04    0.10636E-03   -0.16356E-02 63216   0.263E-01    0.416E-01
DAV:   4    -0.125209857643E+04    0.60715E-03   -0.20970E-03 63288   0.888E-02    0.255E-01
DAV:   5    -0.125209824618E+04    0.33025E-03   -0.16866E-03 61836   0.732E-02    0.150E-01
DAV:   6    -0.125209821904E+04    0.27148E-04   -0.82493E-04 55656   0.554E-02
  14 F= -.12520982E+04 E0= -.12520962E+04  d E =-.321017E-01  mag=    32.0121
       N       E                     dE             d eps       ncg     rms          rms(c)
DAV:   1    -0.125209048660E+04    0.77596E-02   -0.13134E+01 43008   0.504E+00    0.144E+00
DAV:   2    -0.125212447853E+04   -0.33992E-01   -0.61327E-01 57888   0.136E+00    0.201E+00
DAV:   3    -0.125211991522E+04    0.45633E-02   -0.62331E-02 55536   0.391E-01    0.154E+00
DAV:   4    -0.125211365568E+04    0.62595E-02   -0.49549E-02 63240   0.360E-01    0.123E+00
DAV:   5    -0.125211281683E+04    0.83885E-03   -0.24270E-02 62928   0.291E-01    0.724E-01
DAV:   6    -0.125211095153E+04    0.18653E-02   -0.91664E-03 65340   0.188E-01    0.535E-01
DAV:   7    -0.125210997765E+04    0.97388E-03   -0.60847E-03 62532   0.116E-01    0.294E-01
DAV:   8    -0.125210979657E+04    0.18108E-03   -0.12375E-03 62448   0.648E-02    0.186E-01
DAV:   9    -0.125210967515E+04    0.12142E-03   -0.28912E-04 38796   0.307E-02    0.124E-01
DAV:  10    -0.125210960613E+04    0.69016E-04   -0.24004E-04 36300   0.257E-02
  15 F= -.12521096E+04 E0= -.12521062E+04  d E =-.113871E-01  mag=    32.0086
       N       E                     dE             d eps       ncg     rms          rms(c)
DAV:   1    -0.125214325795E+04   -0.33583E-01   -0.39199E+00 43008   0.256E+00    0.101E+00
DAV:   2    -0.125215274117E+04   -0.94832E-02   -0.26357E-01 57984   0.958E-01    0.154E+00
DAV:   3    -0.125215162808E+04    0.11131E-02   -0.36555E-02 54024   0.292E-01    0.129E+00
DAV:   4    -0.125214713963E+04    0.44884E-02   -0.12065E-02 61128   0.183E-01    0.111E+00
DAV:   5    -0.125214722128E+04   -0.81643E-04   -0.31552E-02 56232   0.245E-01    0.710E-01
DAV:   6    -0.125214650563E+04    0.71565E-03   -0.10524E-02 63936   0.192E-01    0.621E-01
DAV:   7    -0.125214471104E+04    0.17946E-02   -0.80924E-03 58944   0.130E-01    0.387E-01
DAV:   8    -0.125214459354E+04    0.11750E-03   -0.14667E-03 60048   0.604E-02    0.279E-01
DAV:   9    -0.125214437420E+04    0.21934E-03   -0.31036E-04 39624   0.363E-02    0.203E-01
DAV:  10    -0.125214416169E+04    0.21250E-03   -0.78142E-04 50244   0.379E-02    0.113E-01
DAV:  11    -0.125214413766E+04    0.24035E-04   -0.12974E-04 26568   0.198E-02
  16 F= -.12521441E+04 E0= -.12521431E+04  d E =-.345315E-01  mag=    32.0060
       N       E                     dE             d eps       ncg     rms          rms(c)
DAV:   1    -0.125215489919E+04   -0.10737E-01   -0.48247E+00 43008   0.309E+00    0.454E-01
DAV:   2    -0.125216699409E+04   -0.12095E-01   -0.13471E-01 51000   0.549E-01    0.274E-01
DAV:   3    -0.125216694958E+04    0.44515E-04   -0.56462E-03 61968   0.129E-01    0.216E-01
DAV:   4    -0.125216671329E+04    0.23629E-03   -0.76337E-04 54984   0.590E-02    0.132E-01
DAV:   5    -0.125216654104E+04    0.17225E-03   -0.94098E-04 55836   0.613E-02    0.596E-02
DAV:   6    -0.125216655432E+04   -0.13281E-04   -0.38766E-04 40212   0.372E-02
  17 F= -.12521666E+04 E0= -.12521658E+04  d E =-.224167E-01  mag=    32.0048
       N       E                     dE             d eps       ncg     rms          rms(c)
DAV:   1    -0.125209982001E+04    0.66721E-01   -0.48998E+01 43008   0.984E+00    0.153E+00
DAV:   2    -0.125222605241E+04   -0.12623E+00   -0.14042E+00 53232   0.177E+00    0.131E+00
DAV:   3    -0.125222334153E+04    0.27109E-02   -0.62133E-02 60504   0.428E-01    0.754E-01
DAV:   4    -0.125221904202E+04    0.42995E-02   -0.15380E-02 64344   0.286E-01    0.576E-01
DAV:   5    -0.125221853669E+04    0.50533E-03   -0.12261E-02 63060   0.185E-01    0.281E-01
DAV:   6    -0.125221832017E+04    0.21653E-03   -0.29708E-03 62652   0.111E-01    0.172E-01
DAV:   7    -0.125221830183E+04    0.18335E-04   -0.20787E-03 63480   0.733E-02    0.986E-02
DAV:   8    -0.125221831592E+04   -0.14089E-04   -0.26532E-04 38220   0.329E-02
  18 F= -.12522183E+04 E0= -.12522180E+04  d E =-.517616E-01  mag=    32.0036
       N       E                     dE             d eps       ncg     rms          rms(c)
DAV:   1    -0.125222710562E+04   -0.88038E-02   -0.11725E+00 43020   0.147E+00    0.408E-01
DAV:   2    -0.125223034847E+04   -0.32428E-02   -0.57306E-02 57216   0.426E-01    0.611E-01
DAV:   3    -0.125223014775E+04    0.20072E-03   -0.64366E-03 55584   0.125E-01    0.484E-01
DAV:   4    -0.125222949058E+04    0.65717E-03   -0.24955E-03 58368   0.852E-02    0.416E-01
DAV:   5    -0.125222964301E+04   -0.15243E-03   -0.43688E-03 55872   0.102E-01    0.279E-01
DAV:   6    -0.125222944491E+04    0.19811E-03   -0.16510E-03 61968   0.753E-02    0.224E-01
DAV:   7    -0.125222920489E+04    0.24002E-03   -0.14023E-03 57192   0.561E-02    0.117E-01
DAV:   8    -0.125222919916E+04    0.57282E-05   -0.17864E-04 27684   0.242E-02
  19 F= -.12522292E+04 E0= -.12522290E+04  d E =-.108832E-01  mag=    32.0027
       N       E                     dE             d eps       ncg     rms          rms(c)
DAV:   1    -0.125223342568E+04   -0.42208E-02   -0.17275E+00 43008   0.184E+00    0.344E-01
DAV:   2    -0.125223769454E+04   -0.42689E-02   -0.50574E-02 54516   0.354E-01    0.251E-01
DAV:   3    -0.125223791147E+04   -0.21692E-03   -0.48980E-03 61332   0.110E-01    0.168E-01
DAV:   4    -0.125223772886E+04    0.18261E-03   -0.81873E-04 55392   0.523E-02    0.115E-01
DAV:   5    -0.125223769836E+04    0.30500E-04   -0.70130E-04 53160   0.550E-02
  20 F= -.12522377E+04 E0= -.12522375E+04  d E =-.849920E-02  mag=    32.0023
       N       E                     dE             d eps       ncg     rms          rms(c)
DAV:   1    -0.125224106058E+04   -0.33317E-02   -0.10733E+00 43008   0.145E+00    0.275E-01
DAV:   2    -0.125224390353E+04   -0.28430E-02   -0.35751E-02 56148   0.309E-01    0.333E-01
DAV:   3    -0.125224376886E+04    0.13467E-03   -0.25245E-03 59340   0.884E-02    0.216E-01
DAV:   4    -0.125224358789E+04    0.18097E-03   -0.75720E-04 52572   0.536E-02    0.180E-01
DAV:   5    -0.125224355776E+04    0.30128E-04   -0.56901E-04 48384   0.527E-02
  21 F= -.12522436E+04 E0= -.12522434E+04  d E =-.585940E-02  mag=    32.0019
       N       E                     dE             d eps       ncg     rms          rms(c)
DAV:   1    -0.125224681929E+04   -0.32314E-02   -0.12430E+00 43008   0.156E+00    0.249E-01
DAV:   2    -0.125225017545E+04   -0.33562E-02   -0.38720E-02 54360   0.314E-01    0.286E-01
DAV:   3    -0.125225011083E+04    0.64628E-04   -0.26817E-03 59568   0.871E-02    0.173E-01
DAV:   4    -0.125224996627E+04    0.14456E-03   -0.67182E-04 51192   0.564E-02    0.145E-01
DAV:   5    -0.125224996329E+04    0.29769E-05   -0.57424E-04 48468   0.520E-02
  22 F= -.12522500E+04 E0= -.12522498E+04  d E =-.640553E-02  mag=    32.0015
       N       E                     dE             d eps       ncg     rms          rms(c)
DAV:   1    -0.125225041814E+04   -0.45188E-03   -0.17987E-02 43872   0.180E-01    0.937E-02
DAV:   2    -0.125225038705E+04    0.31096E-04   -0.14846E-03 58176   0.883E-02    0.117E-01
DAV:   3    -0.125225036828E+04    0.18763E-04   -0.35980E-04 39576   0.310E-02
  23 F= -.12522504E+04 E0= -.12522502E+04  d E =-.404994E-03  mag=    32.0014
       N       E                     dE             d eps       ncg     rms          rms(c)
DAV:   1    -0.125225361444E+04   -0.32274E-02   -0.15158E+00 43008   0.173E+00    0.292E-01
DAV:   2    -0.125225739857E+04   -0.37841E-02   -0.43522E-02 52416   0.316E-01    0.202E-01
DAV:   3    -0.125225735946E+04    0.39115E-04   -0.22360E-03 60948   0.810E-02    0.111E-01
DAV:   4    -0.125225724659E+04    0.11287E-03   -0.25369E-04 35256   0.420E-02    0.811E-02
DAV:   5    -0.125225723721E+04    0.93781E-05   -0.41060E-04 35484   0.361E-02
  24 F= -.12522572E+04 E0= -.12522571E+04  d E =-.686892E-02  mag=    32.0012
       N       E                     dE             d eps       ncg     rms          rms(c)
DAV:   1    -0.125225965549E+04   -0.24089E-02   -0.18255E-01 43212   0.608E-01    0.183E-01
DAV:   2    -0.125225973087E+04   -0.75373E-04   -0.71600E-03 60552   0.139E-01    0.141E-01
DAV:   3    -0.125225967366E+04    0.57207E-04   -0.85322E-04 54684   0.586E-02
  25 F= -.12522597E+04 E0= -.12522595E+04  d E =-.243645E-02  mag=    32.0011
       N       E                     dE             d eps       ncg     rms          rms(c)
DAV:   1    -0.125226250653E+04   -0.27757E-02   -0.14391E+00 43056   0.169E+00    0.252E-01
DAV:   2    -0.125226581817E+04   -0.33116E-02   -0.39312E-02 48936   0.294E-01    0.142E-01
DAV:   3    -0.125226575481E+04    0.63365E-04   -0.15886E-03 60012   0.681E-02    0.102E-01
DAV:   4    -0.125226567211E+04    0.82695E-04   -0.22145E-04 30972   0.341E-02
  26 F= -.12522657E+04 E0= -.12522656E+04  d E =-.599846E-02  mag=    32.0009
       N       E                     dE             d eps       ncg     rms          rms(c)
DAV:   1    -0.125226866360E+04   -0.29088E-02   -0.82569E-01 43020   0.127E+00    0.232E-01
DAV:   2    -0.125227043686E+04   -0.17733E-02   -0.21684E-02 52308   0.227E-01    0.170E-01
DAV:   3    -0.125227044698E+04   -0.10120E-04   -0.14951E-03 60180   0.605E-02    0.104E-01
DAV:   4    -0.125227036606E+04    0.80922E-04   -0.16272E-04 31416   0.374E-02
  27 F= -.12522704E+04 E0= -.12522702E+04  d E =-.469394E-02  mag=    32.0008
       N       E                     dE             d eps       ncg     rms          rms(c)
DAV:   1    -0.125226280366E+04    0.76433E-02   -0.81962E+00 43008   0.401E+00    0.568E-01
DAV:   2    -0.125228395314E+04   -0.21149E-01   -0.22605E-01 47964   0.708E-01    0.386E-01
DAV:   3    -0.125228397961E+04   -0.26471E-04   -0.10130E-02 63816   0.164E-01    0.247E-01
DAV:   4    -0.125228346598E+04    0.51363E-03   -0.12556E-03 57996   0.893E-02    0.173E-01
DAV:   5    -0.125228322816E+04    0.23781E-03   -0.17897E-03 61512   0.956E-02    0.760E-02
DAV:   6    -0.125228325407E+04   -0.25902E-04   -0.80917E-04 50088   0.479E-02
  28 F= -.12522833E+04 E0= -.12522832E+04  d E =-.128880E-01  mag=    32.0006
       N       E                     dE             d eps       ncg     rms          rms(c)
DAV:   1    -0.125227488937E+04    0.83388E-02   -0.16040E+00 43008   0.178E+00    0.335E-01
DAV:   2    -0.125227834390E+04   -0.34545E-02   -0.47383E-02 53532   0.340E-01    0.270E-01
DAV:   3    -0.125227821205E+04    0.13185E-03   -0.26764E-03 58836   0.941E-02    0.128E-01
DAV:   4    -0.125227805086E+04    0.16119E-03   -0.34224E-04 39024   0.415E-02    0.100E-01
DAV:   5    -0.125227799457E+04    0.56293E-04   -0.27875E-04 31980   0.377E-02
  29 F= -.12522780E+04 E0= -.12522779E+04  d E =0.525950E-02  mag=    32.0005
       N       E                     dE             d eps       ncg     rms          rms(c)
DAV:   1    -0.125227995342E+04   -0.19026E-02   -0.11434E+00 43008   0.150E+00    0.208E-01
DAV:   2    -0.125228286966E+04   -0.29162E-02   -0.31392E-02 50052   0.262E-01    0.148E-01
DAV:   3    -0.125228285822E+04    0.11440E-04   -0.13467E-03 57456   0.600E-02    0.810E-02
DAV:   4    -0.125228277913E+04    0.79089E-04   -0.13572E-04 28656   0.313E-02
  30 F= -.12522828E+04 E0= -.12522827E+04  d E =-.478456E-02  mag=    32.0005
       N       E                     dE             d eps       ncg     rms          rms(c)
DAV:   1    -0.125228136529E+04    0.14929E-02   -0.78019E-02 43356   0.400E-01    0.909E-02
DAV:   2    -0.125228155745E+04   -0.19216E-03   -0.27847E-03 54060   0.819E-02    0.682E-02
DAV:   3    -0.125228154267E+04    0.14781E-04   -0.12239E-04 26172   0.272E-02
  31 F= -.12522815E+04 E0= -.12522815E+04  d E =0.123646E-02  mag=    32.0004
       N       E                     dE             d eps       ncg     rms          rms(c)
DAV:   1    -0.125226775510E+04    0.13802E-01   -0.26996E+00 43056   0.231E+00    0.325E-01
DAV:   2    -0.125227462604E+04   -0.68709E-02   -0.73592E-02 51588   0.411E-01    0.254E-01
DAV:   3    -0.125227458286E+04    0.43175E-04   -0.32271E-03 62856   0.994E-02    0.154E-01
DAV:   4    -0.125227437567E+04    0.20719E-03   -0.28049E-04 36648   0.469E-02    0.113E-01
DAV:   5    -0.125227423456E+04    0.14111E-03   -0.81583E-04 52260   0.637E-02    0.599E-02
DAV:   6    -0.125227426059E+04   -0.26026E-04   -0.61127E-04 50556   0.410E-02
  32 F= -.12522743E+04 E0= -.12522741E+04  d E =0.728208E-02  mag=    32.0003
       N       E                     dE             d eps       ncg     rms          rms(c)
DAV:   1    -0.125227031230E+04    0.39223E-02   -0.63186E+00 43104   0.353E+00    0.514E-01
DAV:   2    -0.125228607065E+04   -0.15758E-01   -0.17180E-01 47460   0.614E-01    0.301E-01
DAV:   3    -0.125228594575E+04    0.12490E-03   -0.66414E-03 61368   0.139E-01    0.203E-01
DAV:   4    -0.125228561810E+04    0.32764E-03   -0.11105E-03 62196   0.695E-02    0.125E-01
DAV:   5    -0.125228532647E+04    0.29163E-03   -0.46464E-04 44088   0.651E-02    0.618E-02
DAV:   6    -0.125228536354E+04   -0.37066E-04   -0.84337E-04 52128   0.506E-02
  33 F= -.12522854E+04 E0= -.12522853E+04  d E =-.111030E-01  mag=    32.0003
       N       E                     dE             d eps       ncg     rms          rms(c)
DAV:   1    -0.125228716402E+04   -0.18375E-02   -0.96036E-01 43008   0.136E+00    0.272E-01
DAV:   2    -0.125228932299E+04   -0.21590E-02   -0.27583E-02 55020   0.262E-01    0.216E-01
DAV:   3    -0.125228935595E+04   -0.32959E-04   -0.25250E-03 60984   0.824E-02    0.116E-01
DAV:   4    -0.125228925390E+04    0.10205E-03   -0.43937E-04 45768   0.509E-02    0.102E-01
DAV:   5    -0.125228923729E+04    0.16607E-04   -0.28479E-04 33180   0.433E-02
  34 F= -.12522892E+04 E0= -.12522891E+04  d E =-.387375E-02  mag=    32.0002
       N       E                     dE             d eps       ncg     rms          rms(c)
DAV:   1    -0.125228596858E+04    0.32853E-02   -0.48788E+00 43032   0.309E+00    0.462E-01
DAV:   2    -0.125229820305E+04   -0.12234E-01   -0.13478E-01 47256   0.534E-01    0.244E-01
DAV:   3    -0.125229829096E+04   -0.87918E-04   -0.61129E-03 61656   0.119E-01    0.166E-01
DAV:   4    -0.125229798696E+04    0.30400E-03   -0.10138E-03 55824   0.635E-02    0.100E-01
DAV:   5    -0.125229784172E+04    0.14523E-03   -0.63256E-04 52680   0.699E-02    0.545E-02
DAV:   6    -0.125229786427E+04   -0.22549E-04   -0.38144E-04 39828   0.358E-02
  35 F= -.12522979E+04 E0= -.12522978E+04  d E =-.862698E-02  mag=    32.0002
       N       E                     dE             d eps       ncg     rms          rms(c)
DAV:   1    -0.125229602787E+04    0.18139E-02   -0.31087E+00 43080   0.247E+00    0.343E-01
DAV:   2    -0.125230396543E+04   -0.79376E-02   -0.85541E-02 51348   0.437E-01    0.237E-01
DAV:   3    -0.125230391303E+04    0.52403E-04   -0.35971E-03 61524   0.104E-01    0.151E-01
DAV:   4    -0.125230372815E+04    0.18488E-03   -0.61835E-04 53772   0.550E-02    0.104E-01
DAV:   5    -0.125230359667E+04    0.13147E-03   -0.39769E-04 42432   0.592E-02    0.578E-02
DAV:   6    -0.125230364003E+04   -0.43360E-04   -0.61746E-04 49548   0.441E-02
  36 F= -.12523036E+04 E0= -.12523036E+04  d E =-.577576E-02  mag=    32.0002
       N       E                     dE             d eps       ncg     rms          rms(c)
DAV:   1    -0.125230496174E+04   -0.13651E-02   -0.95246E-01 43056   0.135E+00    0.234E-01
DAV:   2    -0.125230701269E+04   -0.20510E-02   -0.25861E-02 54480   0.254E-01    0.147E-01
DAV:   3    -0.125230714841E+04   -0.13571E-03   -0.28513E-03 60372   0.783E-02    0.959E-02
DAV:   4    -0.125230704931E+04    0.99096E-04   -0.24655E-04 34692   0.370E-02
  37 F= -.12523070E+04 E0= -.12523070E+04  d E =-.340928E-02  mag=    32.0001
       N       E                     dE             d eps       ncg     rms          rms(c)
DAV:   1    -0.125230736898E+04   -0.22057E-03   -0.72719E-02 43152   0.361E-01    0.110E-01
DAV:   2    -0.125230755216E+04   -0.18318E-03   -0.36868E-03 57372   0.106E-01    0.158E-01
DAV:   3    -0.125230752588E+04    0.26277E-04   -0.38033E-04 42096   0.318E-02
  38 F= -.12523075E+04 E0= -.12523075E+04  d E =-.476570E-03  mag=    32.0001
       N       E                     dE             d eps       ncg     rms          rms(c)
DAV:   1    -0.125230856265E+04   -0.10105E-02   -0.42504E-01 43176   0.913E-01    0.153E-01
DAV:   2    -0.125230963899E+04   -0.10763E-02   -0.13407E-02 55512   0.175E-01    0.128E-01
DAV:   3    -0.125230953002E+04    0.10897E-03   -0.68672E-04 52272   0.565E-02    0.629E-02
DAV:   4    -0.125230949389E+04    0.36130E-04   -0.18781E-04 32172   0.270E-02
  39 F= -.12523095E+04 E0= -.12523095E+04  d E =-.196801E-02  mag=    32.0001
       N       E                     dE             d eps       ncg     rms          rms(c)
DAV:   1    -0.125231051277E+04   -0.98275E-03   -0.20188E-01 43152   0.623E-01    0.105E-01
DAV:   2    -0.125231095791E+04   -0.44514E-03   -0.52825E-03 53052   0.113E-01    0.788E-02
DAV:   3    -0.125231095134E+04    0.65684E-05   -0.27926E-04 33240   0.318E-02
  40 F= -.12523110E+04 E0= -.12523109E+04  d E =-.145745E-02  mag=    32.0001
       N       E                     dE             d eps       ncg     rms          rms(c)
DAV:   1    -0.125231184316E+04   -0.88526E-03   -0.51538E-01 43080   0.999E-01    0.154E-01
DAV:   2    -0.125231310484E+04   -0.12617E-02   -0.14055E-02 51264   0.177E-01    0.117E-01
DAV:   3    -0.125231307285E+04    0.31995E-04   -0.59672E-04 48636   0.430E-02
  41 F= -.12523131E+04 E0= -.12523130E+04  d E =-.212151E-02  mag=    32.0001
