       N       E                     dE             d eps       ncg     rms          rms(c)
DAV:   1     0.110811138953E+05    0.11081E+05   -0.39378E+05 43032   0.125E+03
DAV:   2     0.102873692388E+04   -0.10052E+05   -0.92500E+04 44412   0.350E+02
DAV:   3    -0.142218156257E+04   -0.24509E+04   -0.23699E+04 48720   0.180E+02
DAV:   4    -0.164754746339E+04   -0.22537E+03   -0.22171E+03 64848   0.608E+01
DAV:   5    -0.165637142156E+04   -0.88240E+01   -0.86979E+01 67716   0.139E+01
DAV:   6    -0.165678019723E+04   -0.40878E+00   -0.40493E+00 68052   0.254E+00
DAV:   7    -0.165680501220E+04   -0.24815E-01   -0.24696E-01 68220   0.633E-01
DAV:   8    -0.165680681459E+04   -0.18024E-02   -0.17982E-02 63540   0.145E-01
DAV:   9    -0.165680695898E+04   -0.14439E-03   -0.14418E-03 44244   0.424E-02
DAV:  10    -0.165680697185E+04   -0.12870E-04   -0.12839E-04 36252   0.160E-02
DAV:  11    -0.165680697436E+04   -0.25058E-05   -0.24923E-05 33540   0.100E-02
DAV:  12    -0.165680697566E+04   -0.13033E-05   -0.12966E-05 32532   0.723E-03    0.162E+02
DAV:  13    -0.125932385939E+04    0.39748E+03   -0.25194E+03 63744   0.832E+01    0.128E+02
DAV:  14    -0.144119305693E+04   -0.18187E+03   -0.46500E+03 71304   0.135E+02    0.175E+02
DAV:  15    -0.133681078532E+04    0.10438E+03   -0.12915E+03 68268   0.882E+01    0.722E+01
DAV:  16    -0.131766642295E+04    0.19144E+02   -0.27820E+02 69012   0.591E+01    0.776E+01
DAV:  17    -0.130005124232E+04    0.17615E+02   -0.11207E+02 62856   0.152E+01    0.586E+01
DAV:  18    -0.130008031780E+04   -0.29075E-01   -0.12344E+02 63132   0.208E+01    0.108E+02
DAV:  19    -0.136504607304E+04   -0.64966E+02   -0.94863E+01 62712   0.298E+01    0.971E+01
DAV:  20    -0.138275271049E+04   -0.17707E+02   -0.68923E+02 65736   0.383E+01    0.101E+02
DAV:  21    -0.124179763607E+04    0.14096E+03   -0.39103E+02 66660   0.360E+01    0.257E+01
DAV:  22    -0.125638114768E+04   -0.14584E+02   -0.23123E+02 63852   0.150E+01    0.188E+01
DAV:  23    -0.125395466137E+04    0.24265E+01   -0.17122E+01 60756   0.591E+00    0.147E+01
DAV:  24    -0.124909080929E+04    0.48639E+01   -0.40558E+00 71556   0.608E+00    0.115E+01
DAV:  25    -0.124505348133E+04    0.40373E+01   -0.13088E+01 66036   0.920E+00    0.186E+01
DAV:  26    -0.124463342714E+04    0.42005E+00   -0.10865E+01 62208   0.421E+00    0.847E+00
DAV:  27    -0.124438662391E+04    0.24680E+00   -0.22232E+00 63024   0.232E+00    0.111E+01
DAV:  28    -0.124426725076E+04    0.11937E+00   -0.64710E-01 62076   0.128E+00    0.101E+01
DAV:  29    -0.124436921056E+04   -0.10196E+00   -0.85206E-02 61380   0.404E-01    0.114E+01
DAV:  30    -0.124427474839E+04    0.94462E-01   -0.38156E-01 64512   0.320E-01    0.105E+01
DAV:  31    -0.124431763326E+04   -0.42885E-01   -0.93659E-02 64308   0.373E-01    0.107E+01
DAV:  32    -0.124447680360E+04   -0.15917E+00   -0.85753E-01 65976   0.681E-01    0.128E+01
DAV:  33    -0.124429807411E+04    0.17873E+00   -0.42311E-01 62856   0.114E+00    0.131E+01
DAV:  34    -0.124436891009E+04   -0.70836E-01   -0.22690E-01 54228   0.709E-01    0.133E+01
DAV:  35    -0.124420657937E+04    0.16233E+00   -0.13987E-01 65292   0.969E-01    0.138E+01
DAV:  36    -0.124367923942E+04    0.52734E+00   -0.65076E-01 64740   0.210E+00    0.135E+01
DAV:  37    -0.124378515958E+04   -0.10592E+00   -0.42640E-01 54096   0.965E-01    0.147E+01
DAV:  38    -0.124414796891E+04   -0.36281E+00   -0.17483E+00 67044   0.209E+00    0.201E+01
DAV:  39    -0.124438878800E+04   -0.24082E+00   -0.56635E-01 52356   0.105E+00    0.197E+01
DAV:  40    -0.124438300371E+04    0.57843E-02   -0.29785E-01 60168   0.765E-01    0.191E+01
DAV:  41    -0.124430761168E+04    0.75392E-01   -0.63773E-02 57552   0.390E-01    0.194E+01
DAV:  42    -0.124423862033E+04    0.68991E-01   -0.13628E-01 65208   0.536E-01    0.198E+01
DAV:  43    -0.124379279832E+04    0.44582E+00   -0.67189E-01 65472   0.116E+00    0.198E+01
DAV:  44    -0.124287101627E+04    0.92178E+00   -0.11371E+00 63492   0.122E+00    0.139E+01
DAV:  45    -0.124165946325E+04    0.12116E+01   -0.34016E+00 65604   0.283E+00    0.193E+01
DAV:  46    -0.124107815866E+04    0.58130E+00   -0.35272E+00 62064   0.216E+00    0.681E+00
DAV:  47    -0.124063911069E+04    0.43905E+00   -0.84076E-01 58188   0.115E+00    0.903E+00
DAV:  48    -0.124003848641E+04    0.60062E+00   -0.92283E-01 60288   0.120E+00    0.877E+00
DAV:  49    -0.123840290907E+04    0.16356E+01   -0.36991E+00 58356   0.144E+00    0.152E+01
DAV:  50    -0.123751272145E+04    0.89019E+00   -0.34296E-01 52512   0.813E-01    0.158E+01
DAV:  51    -0.123771165897E+04   -0.19894E+00   -0.80604E-02 54288   0.421E-01    0.157E+01
DAV:  52    -0.123862988726E+04   -0.91823E+00   -0.42146E-01 56208   0.737E-01    0.128E+01
DAV:  53    -0.123935847273E+04   -0.72859E+00   -0.89978E-01 57516   0.822E-01    0.889E+00
DAV:  54    -0.124013602850E+04   -0.77756E+00   -0.74699E-01 57528   0.786E-01    0.533E+00
DAV:  55    -0.124108090316E+04   -0.94487E+00   -0.14205E+00 59676   0.126E+00    0.537E+00
DAV:  56    -0.124195430804E+04   -0.87340E+00   -0.17875E+00 58056   0.160E+00    0.545E+00
DAV:  57    -0.124222599194E+04   -0.27168E+00   -0.36827E-01 51168   0.792E-01    0.546E+00
DAV:  58    -0.124225756521E+04   -0.31573E-01   -0.84607E-02 61464   0.485E-01    0.503E+00
DAV:  59    -0.124244709224E+04   -0.18953E+00   -0.66120E-02 60504   0.406E-01    0.495E+00
DAV:  60    -0.124268731330E+04   -0.24022E+00   -0.33770E-01 64680   0.805E-01    0.600E+00
DAV:  61    -0.124265275262E+04    0.34561E-01   -0.11145E-01 57288   0.694E-01    0.510E+00
DAV:  62    -0.124266020394E+04   -0.74513E-02   -0.46615E-02 48588   0.310E-01    0.498E+00
DAV:  63    -0.124182038127E+04    0.83982E+00   -0.13876E+00 65112   0.168E+00    0.888E+00
DAV:  64    -0.124195706154E+04   -0.13668E+00   -0.62129E-01 54180   0.897E-01    0.385E+00
DAV:  65    -0.124236280883E+04   -0.40575E+00   -0.32555E-01 65448   0.838E-01    0.352E+00
DAV:  66    -0.124253612880E+04   -0.17332E+00   -0.24575E-01 56712   0.662E-01    0.335E+00
DAV:  67    -0.124251220524E+04    0.23924E-01   -0.64417E-02 47976   0.365E-01    0.341E+00
DAV:  68    -0.124247455309E+04    0.37652E-01   -0.40738E-01 68892   0.816E-01    0.376E+00
DAV:  69    -0.124244851011E+04    0.26043E-01   -0.75817E-01 60804   0.955E-01    0.748E+00
DAV:  70    -0.124255211070E+04   -0.10360E+00   -0.86020E-01 53004   0.538E-01    0.123E+01
DAV:  71    -0.124252271976E+04    0.29391E-01   -0.27639E-01 57444   0.453E-01    0.102E+01
DAV:  72    -0.124256534146E+04   -0.42622E-01   -0.17538E-01 63108   0.342E-01    0.124E+01
DAV:  73    -0.124336449894E+04   -0.79916E+00   -0.14720E+01 65928   0.328E+00    0.796E+00
DAV:  74    -0.124329503435E+04    0.69465E-01   -0.72010E-01 53292   0.107E+00    0.720E+00
DAV:  75    -0.124329921094E+04   -0.41766E-02   -0.16960E-01 68340   0.454E-01    0.804E+00
DAV:  76    -0.124317329219E+04    0.12592E+00   -0.27143E-01 64776   0.571E-01    0.589E+00
DAV:  77    -0.124300410958E+04    0.16918E+00   -0.31361E-01 62592   0.685E-01    0.537E+00
DAV:  78    -0.124296322923E+04    0.40880E-01   -0.24741E-01 65268   0.105E+00    0.484E+00
DAV:  79    -0.124292062051E+04    0.42609E-01   -0.85735E-02 54996   0.442E-01    0.465E+00
DAV:  80    -0.124291521982E+04    0.54007E-02   -0.18082E-02 52524   0.194E-01    0.479E+00
DAV:  81    -0.124291038963E+04    0.48302E-02   -0.16471E-02 63888   0.231E-01    0.467E+00
DAV:  82    -0.124291122268E+04   -0.83306E-03   -0.36099E-02 62628   0.307E-01    0.556E+00
DAV:  83    -0.124287462642E+04    0.36596E-01   -0.99608E-02 65028   0.415E-01    0.524E+00
DAV:  84    -0.124289337676E+04   -0.18750E-01   -0.10430E-01 59832   0.320E-01    0.498E+00
DAV:  85    -0.124296705777E+04   -0.73681E-01   -0.19061E-01 60348   0.552E-01    0.601E+00
DAV:  86    -0.124284173776E+04    0.12532E+00   -0.17256E-01 59076   0.822E-01    0.642E+00
DAV:  87    -0.124285598129E+04   -0.14244E-01   -0.55648E-02 47388   0.444E-01    0.625E+00
DAV:  88    -0.124293754705E+04   -0.81566E-01   -0.14145E-01 65460   0.628E-01    0.639E+00
DAV:  89    -0.124291521129E+04    0.22336E-01   -0.50332E-02 68304   0.673E-01    0.682E+00
DAV:  90    -0.124286488099E+04    0.50330E-01   -0.65723E-02 63972   0.575E-01    0.712E+00
DAV:  91    -0.124278496722E+04    0.79914E-01   -0.58919E-02 55140   0.489E-01    0.716E+00
DAV:  92    -0.124278527684E+04   -0.30962E-03   -0.27269E-02 48648   0.225E-01    0.713E+00
DAV:  93    -0.124275517280E+04    0.30104E-01   -0.33726E-02 70356   0.421E-01    0.715E+00
DAV:  94    -0.124281796788E+04   -0.62795E-01   -0.46328E-02 63768   0.470E-01    0.716E+00
DAV:  95    -0.124295784221E+04   -0.13987E+00   -0.41731E-02 58368   0.418E-01    0.722E+00
DAV:  96    -0.124312464014E+04   -0.16680E+00   -0.88091E-02 55608   0.501E-01    0.756E+00
DAV:  97    -0.124316417096E+04   -0.39531E-01   -0.51555E-02 51156   0.342E-01    0.749E+00
DAV:  98    -0.124310046102E+04    0.63710E-01   -0.62065E-01 65028   0.156E+00    0.894E+00
DAV:  99    -0.124325211843E+04   -0.15166E+00   -0.16908E-01 56724   0.865E-01    0.933E+00
DAV: 100    -0.124322934587E+04    0.22773E-01   -0.60083E-02 58548   0.396E-01
   1 F= -.12432293E+04 E0= -.12432082E+04  d E =-.124323E+04  mag=    38.6416
       N       E                     dE             d eps       ncg     rms          rms(c)
DAV:   1    -0.124271073740E+04    0.54138E+00   -0.26818E+03 43008   0.714E+01    0.211E+01
DAV:   2    -0.125215127529E+04   -0.94405E+01   -0.12680E+02 62808   0.201E+01    0.210E+01
DAV:   3    -0.125169101431E+04    0.46026E+00   -0.15121E+01 60792   0.675E+00    0.131E+01
DAV:   4    -0.125079816872E+04    0.89285E+00   -0.50419E+00 63168   0.382E+00    0.942E+00
DAV:   5    -0.125054523290E+04    0.25294E+00   -0.18044E+00 60408   0.329E+00    0.458E+00
DAV:   6    -0.125058040830E+04   -0.35175E-01   -0.18538E+00 59772   0.244E+00    0.286E+00
DAV:   7    -0.125057883422E+04    0.15741E-02   -0.72421E-01 56436   0.125E+00    0.168E+00
DAV:   8    -0.125057850129E+04    0.33293E-03   -0.18804E-01 63240   0.711E-01    0.101E+00
DAV:   9    -0.125057900238E+04   -0.50109E-03   -0.57862E-02 64728   0.457E-01    0.807E-01
DAV:  10    -0.125057979042E+04   -0.78804E-03   -0.26988E-02 59472   0.285E-01    0.450E-01
DAV:  11    -0.125057937242E+04    0.41800E-03   -0.93994E-03 63696   0.174E-01    0.306E-01
DAV:  12    -0.125058001972E+04   -0.64730E-03   -0.41842E-03 62436   0.101E-01    0.225E-01
DAV:  13    -0.125058058867E+04   -0.56895E-03   -0.13832E-03 62232   0.717E-02    0.229E-01
DAV:  14    -0.125058087953E+04   -0.29086E-03   -0.61519E-04 49416   0.534E-02    0.177E-01
DAV:  15    -0.125058159756E+04   -0.71803E-03   -0.11322E-03 54552   0.483E-02    0.168E-01
DAV:  16    -0.125058191654E+04   -0.31898E-03   -0.43143E-04 39252   0.419E-02    0.143E-01
DAV:  17    -0.125058243791E+04   -0.52137E-03   -0.10948E-03 55860   0.445E-02    0.136E-01
DAV:  18    -0.125058273127E+04   -0.29336E-03   -0.20285E-04 31536   0.331E-02    0.106E-01
DAV:  19    -0.125058285604E+04   -0.12477E-03   -0.58892E-04 45012   0.345E-02    0.810E-02
DAV:  20    -0.125058298419E+04   -0.12815E-03   -0.14429E-04 26352   0.231E-02    0.735E-02
DAV:  21    -0.125058313280E+04   -0.14862E-03   -0.31943E-04 34524   0.309E-02    0.638E-02
DAV:  22    -0.125058320553E+04   -0.72730E-04   -0.12744E-04 25272   0.213E-02
   2 F= -.12505832E+04 E0= -.12505832E+04  d E =-.735386E+01  mag=    39.9339
       N       E                     dE             d eps       ncg     rms          rms(c)
DAV:   1    -0.125319843365E+04   -0.26153E+01   -0.38562E+02 43008   0.276E+01    0.109E+01
DAV:   2    -0.125329225238E+04   -0.93819E-01   -0.19336E+01 57948   0.969E+00    0.114E+01
DAV:   3    -0.125330751647E+04   -0.15264E-01   -0.56219E+00 61356   0.364E+00    0.880E+00
DAV:   4    -0.125303058132E+04    0.27694E+00   -0.15164E+00 61644   0.188E+00    0.639E+00
DAV:   5    -0.125290541335E+04    0.12517E+00   -0.71984E-01 56316   0.168E+00    0.257E+00
DAV:   6    -0.125289920551E+04    0.62078E-02   -0.41768E-01 64632   0.125E+00    0.141E+00
DAV:   7    -0.125289925891E+04   -0.53394E-04   -0.29121E-01 62112   0.808E-01    0.111E+00
DAV:   8    -0.125289496723E+04    0.42917E-02   -0.26522E-02 63108   0.313E-01    0.652E-01
DAV:   9    -0.125289461222E+04    0.35501E-03   -0.17121E-02 62916   0.226E-01    0.465E-01
DAV:  10    -0.125289471316E+04   -0.10094E-03   -0.38449E-03 61008   0.125E-01    0.303E-01
DAV:  11    -0.125289406992E+04    0.64324E-03   -0.34193E-03 63624   0.103E-01    0.997E-02
DAV:  12    -0.125289413148E+04   -0.61557E-04   -0.14732E-03 58740   0.558E-02    0.744E-02
DAV:  13    -0.125289410229E+04    0.29181E-04   -0.12963E-04 28800   0.289E-02
   3 F= -.12528941E+04 E0= -.12528941E+04  d E =-.231090E+01  mag=    39.9586
       N       E                     dE             d eps       ncg     rms          rms(c)
DAV:   1    -0.125391913352E+04   -0.10250E+01   -0.24429E+02 43008   0.221E+01    0.110E+01
DAV:   2    -0.125416525038E+04   -0.24612E+00   -0.18363E+01 59844   0.873E+00    0.124E+01
DAV:   3    -0.125380664477E+04    0.35861E+00   -0.23344E+00 55836   0.289E+00    0.708E+00
DAV:   4    -0.125368477482E+04    0.12187E+00   -0.10178E+00 63228   0.175E+00    0.500E+00
DAV:   5    -0.125364391020E+04    0.40865E-01   -0.24131E-01 56940   0.105E+00    0.227E+00
DAV:   6    -0.125363577446E+04    0.81357E-02   -0.16574E-01 62928   0.667E-01    0.785E-01
DAV:   7    -0.125363721405E+04   -0.14396E-02   -0.36759E-02 60984   0.367E-01    0.560E-01
DAV:   8    -0.125363682336E+04    0.39070E-03   -0.57835E-03 63864   0.219E-01    0.329E-01
DAV:   9    -0.125363652335E+04    0.30001E-03   -0.31279E-03 65040   0.118E-01    0.233E-01
DAV:  10    -0.125363645135E+04    0.71997E-04   -0.12971E-03 62244   0.714E-02    0.831E-02
DAV:  11    -0.125363641676E+04    0.34597E-04   -0.44354E-04 40680   0.355E-02
   4 F= -.12536364E+04 E0= -.12536364E+04  d E =-.742314E+00  mag=    39.9730
       N       E                     dE             d eps       ncg     rms          rms(c)
DAV:   1    -0.125417415144E+04   -0.53770E+00   -0.59637E+01 43008   0.111E+01    0.499E+00
DAV:   2    -0.125396830376E+04    0.20585E+00   -0.33466E+00 59832   0.331E+00    0.409E+00
DAV:   3    -0.125392028254E+04    0.48021E-01   -0.72370E-01 62832   0.154E+00    0.196E+00
DAV:   4    -0.125389661879E+04    0.23664E-01   -0.21000E-01 63864   0.809E-01    0.158E+00
DAV:   5    -0.125388967930E+04    0.69395E-02   -0.56584E-02 61368   0.424E-01    0.794E-01
DAV:   6    -0.125388708993E+04    0.25894E-02   -0.25372E-02 64308   0.277E-01    0.450E-01
DAV:   7    -0.125388756120E+04   -0.47127E-03   -0.78378E-03 59040   0.127E-01    0.257E-01
DAV:   8    -0.125388741178E+04    0.14941E-03   -0.11973E-03 60096   0.695E-02    0.134E-01
DAV:   9    -0.125388750111E+04   -0.89324E-04   -0.10405E-03 57336   0.504E-02    0.776E-02
DAV:  10    -0.125388742866E+04    0.72450E-04   -0.25772E-04 31824   0.334E-02
   5 F= -.12538874E+04 E0= -.12538874E+04  d E =-.251012E+00  mag=    39.9819
       N       E                     dE             d eps       ncg     rms          rms(c)
DAV:   1    -0.125417796772E+04   -0.29047E+00   -0.23840E+01 43056   0.690E+00    0.298E+00
DAV:   2    -0.125413977159E+04    0.38196E-01   -0.13886E+00 60840   0.236E+00    0.296E+00
DAV:   3    -0.125412719127E+04    0.12580E-01   -0.33400E-01 61176   0.917E-01    0.192E+00
DAV:   4    -0.125410891771E+04    0.18274E-01   -0.13893E-01 63648   0.581E-01    0.142E+00
DAV:   5    -0.125410314418E+04    0.57735E-02   -0.37868E-02 53340   0.354E-01    0.665E-01
DAV:   6    -0.125410072168E+04    0.24225E-02   -0.27807E-02 63732   0.292E-01    0.334E-01
DAV:   7    -0.125410113897E+04   -0.41730E-03   -0.15011E-02 57600   0.175E-01    0.230E-01
DAV:   8    -0.125410102178E+04    0.11720E-03   -0.15585E-03 60300   0.899E-02    0.126E-01
DAV:   9    -0.125410104788E+04   -0.26100E-04   -0.10669E-03 59760   0.610E-02    0.845E-02
DAV:  10    -0.125410103977E+04    0.81069E-05   -0.26332E-04 35088   0.331E-02
   6 F= -.12541010E+04 E0= -.12541010E+04  d E =-.213611E+00  mag=    39.9877
       N       E                     dE             d eps       ncg     rms          rms(c)
DAV:   1    -0.125402642979E+04    0.74618E-01   -0.19346E+02 43008   0.197E+01    0.510E+00
DAV:   2    -0.125452169488E+04   -0.49527E+00   -0.64887E+00 57516   0.442E+00    0.492E+00
DAV:   3    -0.125448363962E+04    0.38055E-01   -0.54035E-01 60600   0.135E+00    0.314E+00
DAV:   4    -0.125445376978E+04    0.29870E-01   -0.11328E-01 63144   0.547E-01    0.209E+00
DAV:   5    -0.125443508261E+04    0.18687E-01   -0.54614E-02 57072   0.449E-01    0.880E-01
DAV:   6    -0.125443488857E+04    0.19404E-03   -0.42412E-02 64272   0.375E-01    0.330E-01
DAV:   7    -0.125443463613E+04    0.25244E-03   -0.91609E-03 62388   0.177E-01    0.211E-01
DAV:   8    -0.125443459764E+04    0.38491E-04   -0.15383E-03 61584   0.875E-02    0.145E-01
DAV:   9    -0.125443458469E+04    0.12951E-04   -0.76687E-04 53328   0.486E-02
   7 F= -.12544346E+04 E0= -.12544346E+04  d E =-.333545E+00  mag=    39.9914
       N       E                     dE             d eps       ncg     rms          rms(c)
DAV:   1    -0.125455870745E+04   -0.12411E+00   -0.23183E+01 43104   0.662E+00    0.226E+00
DAV:   2    -0.125461330908E+04   -0.54602E-01   -0.10376E+00 57168   0.192E+00    0.251E+00
DAV:   3    -0.125460936487E+04    0.39442E-02   -0.16803E-01 61584   0.684E-01    0.173E+00
DAV:   4    -0.125460148400E+04    0.78809E-02   -0.41220E-02 62676   0.333E-01    0.131E+00
DAV:   5    -0.125459917153E+04    0.23125E-02   -0.29436E-02 61596   0.331E-01    0.639E-01
DAV:   6    -0.125459815866E+04    0.10129E-02   -0.24216E-02 63828   0.295E-01    0.297E-01
DAV:   7    -0.125459806244E+04    0.96220E-04   -0.12287E-02 57516   0.179E-01    0.210E-01
DAV:   8    -0.125459803706E+04    0.25379E-04   -0.15887E-03 59364   0.894E-02    0.977E-02
DAV:   9    -0.125459808632E+04   -0.49256E-04   -0.80466E-04 52728   0.534E-02
   8 F= -.12545981E+04 E0= -.12545981E+04  d E =-.163502E+00  mag=    39.9939
       N       E                     dE             d eps       ncg     rms          rms(c)
DAV:   1    -0.125450731987E+04    0.90717E-01   -0.94671E+01 43008   0.137E+01    0.288E+00
DAV:   2    -0.125476146345E+04   -0.25414E+00   -0.26373E+00 52680   0.253E+00    0.184E+00
DAV:   3    -0.125476223675E+04   -0.77330E-03   -0.10784E-01 60780   0.582E-01    0.118E+00
DAV:   4    -0.125475555037E+04    0.66864E-02   -0.15699E-02 63888   0.229E-01    0.659E-01
DAV:   5    -0.125475006433E+04    0.54860E-02   -0.12685E-02 57444   0.210E-01    0.254E-01
DAV:   6    -0.125475016979E+04   -0.10546E-03   -0.68776E-03 59568   0.139E-01    0.150E-01
DAV:   7    -0.125475013348E+04    0.36304E-04   -0.13865E-03 58488   0.596E-02    0.846E-02
DAV:   8    -0.125475013065E+04    0.28350E-05   -0.18774E-04 28380   0.320E-02
   9 F= -.12547501E+04 E0= -.12547501E+04  d E =-.152044E+00  mag=    39.9955
       N       E                     dE             d eps       ncg     rms          rms(c)
DAV:   1    -0.125475032335E+04   -0.18986E-03   -0.20542E+01 43044   0.633E+00    0.104E+00
DAV:   2    -0.125480327256E+04   -0.52949E-01   -0.58452E-01 53700   0.120E+00    0.993E-01
DAV:   3    -0.125480252011E+04    0.75246E-03   -0.25832E-02 60828   0.291E-01    0.614E-01
DAV:   4    -0.125480105454E+04    0.14656E-02   -0.42721E-03 64428   0.116E-01    0.439E-01
DAV:   5    -0.125479998486E+04    0.10697E-02   -0.32693E-03 56184   0.115E-01    0.205E-01
DAV:   6    -0.125480010179E+04   -0.11693E-03   -0.30770E-03 63408   0.938E-02    0.994E-02
DAV:   7    -0.125480005673E+04    0.45055E-04   -0.55719E-04 46188   0.398E-02
  10 F= -.12548001E+04 E0= -.12548001E+04  d E =-.499261E-01  mag=    39.9965
       N       E                     dE             d eps       ncg     rms          rms(c)
DAV:   1    -0.125481278551E+04   -0.12684E-01   -0.30338E+00 43152   0.242E+00    0.584E-01
DAV:   2    -0.125482070133E+04   -0.79158E-02   -0.97459E-02 53784   0.502E-01    0.535E-01
DAV:   3    -0.125482065514E+04    0.46189E-04   -0.75403E-03 60468   0.164E-01    0.365E-01
DAV:   4    -0.125482024128E+04    0.41386E-03   -0.17888E-03 58452   0.677E-02    0.253E-01
DAV:   5    -0.125481998462E+04    0.25667E-03   -0.10550E-03 56100   0.684E-02    0.114E-01
DAV:   6    -0.125481996688E+04    0.17737E-04   -0.75948E-04 56160   0.549E-02
  11 F= -.12548200E+04 E0= -.12548200E+04  d E =-.199101E-01  mag=    39.9972
       N       E                     dE             d eps       ncg     rms          rms(c)
DAV:   1    -0.125483281460E+04   -0.12830E-01   -0.34683E+00 43176   0.259E+00    0.496E-01
DAV:   2    -0.125484016980E+04   -0.73552E-02   -0.10023E-01 53748   0.489E-01    0.409E-01
DAV:   3    -0.125483990806E+04    0.26174E-03   -0.66541E-03 58248   0.147E-01    0.199E-01
DAV:   4    -0.125483964094E+04    0.26712E-03   -0.11622E-03 59088   0.629E-02    0.153E-01
DAV:   5    -0.125483954986E+04    0.91075E-04   -0.53636E-04 45948   0.435E-02
  12 F= -.12548395E+04 E0= -.12548395E+04  d E =-.195830E-01  mag=    39.9977
       N       E                     dE             d eps       ncg     rms          rms(c)
DAV:   1    -0.125485043637E+04   -0.10795E-01   -0.36607E+00 43080   0.267E+00    0.558E-01
DAV:   2    -0.125485834282E+04   -0.79064E-02   -0.11570E-01 56652   0.562E-01    0.577E-01
DAV:   3    -0.125485778396E+04    0.55886E-03   -0.79332E-03 56532   0.170E-01    0.264E-01
DAV:   4    -0.125485746782E+04    0.31613E-03   -0.12261E-03 59712   0.714E-02    0.232E-01
DAV:   5    -0.125485739539E+04    0.72429E-04   -0.55221E-04 48924   0.451E-02
  13 F= -.12548574E+04 E0= -.12548574E+04  d E =-.178455E-01  mag=    39.9981
       N       E                     dE             d eps       ncg     rms          rms(c)
DAV:   1    -0.125486486239E+04   -0.73946E-02   -0.80535E-01 43344   0.124E+00    0.233E-01
DAV:   2    -0.125486655622E+04   -0.16938E-02   -0.21528E-02 53244   0.223E-01    0.146E-01
DAV:   3    -0.125486654844E+04    0.77733E-05   -0.14023E-03 57132   0.657E-02    0.733E-02
DAV:   4    -0.125486649117E+04    0.57267E-04   -0.12711E-04 27228   0.242E-02
  14 F= -.12548665E+04 E0= -.12548665E+04  d E =-.909578E-02  mag=    39.9984
       N       E                     dE             d eps       ncg     rms          rms(c)
DAV:   1    -0.125486825454E+04   -0.17061E-02   -0.12894E+01 43296   0.498E+00    0.728E-01
DAV:   2    -0.125489913616E+04   -0.30882E-01   -0.33427E-01 47628   0.843E-01    0.385E-01
DAV:   3    -0.125489892505E+04    0.21111E-03   -0.11189E-02 62160   0.156E-01    0.239E-01
DAV:   4    -0.125489821230E+04    0.71274E-03   -0.19998E-03 63708   0.846E-02    0.147E-01
DAV:   5    -0.125489797075E+04    0.24156E-03   -0.90577E-04 51384   0.556E-02    0.728E-02
DAV:   6    -0.125489798877E+04   -0.18017E-04   -0.40325E-04 41448   0.298E-02
  15 F= -.12548980E+04 E0= -.12548980E+04  d E =-.314976E-01  mag=    39.9987
       N       E                     dE             d eps       ncg     rms          rms(c)
DAV:   1    -0.125486119011E+04    0.36781E-01   -0.32202E+01 43008   0.784E+00    0.130E+00
DAV:   2    -0.125494255246E+04   -0.81362E-01   -0.84384E-01 49836   0.134E+00    0.754E-01
DAV:   3    -0.125494292171E+04   -0.36925E-03   -0.31784E-02 61812   0.252E-01    0.462E-01
DAV:   4    -0.125494092605E+04    0.19957E-02   -0.48338E-03 61548   0.124E-01    0.293E-01
DAV:   5    -0.125494024911E+04    0.67694E-03   -0.32818E-03 52824   0.950E-02    0.120E-01
DAV:   6    -0.125494028730E+04   -0.38189E-04   -0.88775E-04 53016   0.519E-02
  16 F= -.12549403E+04 E0= -.12549403E+04  d E =-.422985E-01  mag=    39.9990
       N       E                     dE             d eps       ncg     rms          rms(c)
DAV:   1    -0.125493458043E+04    0.56687E-02   -0.12742E+01 43368   0.495E+00    0.755E-01
DAV:   2    -0.125496778995E+04   -0.33210E-01   -0.34278E-01 50784   0.884E-01    0.572E-01
DAV:   3    -0.125496793586E+04   -0.14591E-03   -0.14940E-02 61680   0.209E-01    0.334E-01
DAV:   4    -0.125496722706E+04    0.70880E-03   -0.25032E-03 61632   0.931E-02    0.254E-01
DAV:   5    -0.125496676081E+04    0.46625E-03   -0.15944E-03 53172   0.852E-02    0.106E-01
DAV:   6    -0.125496683842E+04   -0.77611E-04   -0.12643E-03 58464   0.563E-02    0.560E-02
DAV:   7    -0.125496682956E+04    0.88583E-05   -0.16460E-04 27816   0.266E-02
  17 F= -.12549668E+04 E0= -.12549668E+04  d E =-.265423E-01  mag=    39.9992
       N       E                     dE             d eps       ncg     rms          rms(c)
DAV:   1    -0.125497392478E+04   -0.70864E-02   -0.57767E-01 44532   0.111E+00    0.555E-01
DAV:   2    -0.125497093836E+04    0.29864E-02   -0.32825E-02 62712   0.318E-01    0.398E-01
DAV:   3    -0.125497044769E+04    0.49067E-03   -0.54303E-03 61548   0.152E-01    0.181E-01
DAV:   4    -0.125497025347E+04    0.19422E-03   -0.10905E-03 57384   0.580E-02    0.980E-02
DAV:   5    -0.125497021987E+04    0.33607E-04   -0.31933E-04 37992   0.314E-02
  18 F= -.12549702E+04 E0= -.12549702E+04  d E =-.339031E-02  mag=    39.9993
       N       E                     dE             d eps       ncg     rms          rms(c)
DAV:   1    -0.125497537162E+04   -0.51181E-02   -0.32134E-01 43776   0.812E-01    0.384E-01
DAV:   2    -0.125497436019E+04    0.10114E-02   -0.16088E-02 61524   0.224E-01    0.287E-01
DAV:   3    -0.125497416507E+04    0.19512E-03   -0.22369E-03 60192   0.102E-01    0.142E-01
DAV:   4    -0.125497408758E+04    0.77496E-04   -0.48373E-04 45636   0.371E-02
  19 F= -.12549741E+04 E0= -.12549741E+04  d E =-.386771E-02  mag=    39.9994
       N       E                     dE             d eps       ncg     rms          rms(c)
DAV:   1    -0.125497844345E+04   -0.42784E-02   -0.17652E+00 43248   0.183E+00    0.343E-01
DAV:   2    -0.125498274254E+04   -0.42991E-02   -0.46320E-02 52080   0.320E-01    0.223E-01
DAV:   3    -0.125498275689E+04   -0.14356E-04   -0.24226E-03 60360   0.806E-02    0.121E-01
DAV:   4    -0.125498262717E+04    0.12973E-03   -0.38245E-04 41760   0.362E-02    0.806E-02
DAV:   5    -0.125498258591E+04    0.41255E-04   -0.21795E-04 27276   0.283E-02
  20 F= -.12549826E+04 E0= -.12549826E+04  d E =-.849834E-02  mag=    39.9995
       N       E                     dE             d eps       ncg     rms          rms(c)
DAV:   1    -0.125498587934E+04   -0.32522E-02   -0.56812E-01 43392   0.104E+00    0.201E-01
DAV:   2    -0.125498742064E+04   -0.15413E-02   -0.16879E-02 52752   0.217E-01    0.206E-01
DAV:   3    -0.125498741724E+04    0.33993E-05   -0.12485E-03 57432   0.634E-02    0.124E-01
DAV:   4    -0.125498736049E+04    0.56743E-04   -0.18549E-04 30876   0.280E-02
  21 F= -.12549874E+04 E0= -.12549874E+04  d E =-.477458E-02  mag=    39.9996
       N       E                     dE             d eps       ncg     rms          rms(c)
DAV:   1    -0.125499180812E+04   -0.43909E-02   -0.13082E+00 43392   0.158E+00    0.337E-01
DAV:   2    -0.125499425511E+04   -0.24470E-02   -0.35535E-02 52248   0.285E-01    0.185E-01
DAV:   3    -0.125499424455E+04    0.10553E-04   -0.21678E-03 60324   0.882E-02    0.114E-01
DAV:   4    -0.125499416125E+04    0.83308E-04   -0.31911E-04 39084   0.309E-02
  22 F= -.12549942E+04 E0= -.12549942E+04  d E =-.680075E-02  mag=    39.9996
       N       E                     dE             d eps       ncg     rms          rms(c)
DAV:   1    -0.125499854300E+04   -0.42984E-02   -0.90395E-01 43080   0.131E+00    0.318E-01
DAV:   2    -0.125500026091E+04   -0.17179E-02   -0.25871E-02 53004   0.249E-01    0.220E-01
DAV:   3    -0.125500019706E+04    0.63857E-04   -0.15522E-03 58812   0.767E-02    0.122E-01
DAV:   4    -0.125500012403E+04    0.73024E-04   -0.39606E-04 40932   0.329E-02
  23 F= -.12550001E+04 E0= -.12550001E+04  d E =-.596278E-02  mag=    39.9997
       N       E                     dE             d eps       ncg     rms          rms(c)
DAV:   1    -0.125500558798E+04   -0.53909E-02   -0.11198E+00 43020   0.147E+00    0.410E-01
DAV:   2    -0.125500677573E+04   -0.11878E-02   -0.36069E-02 58728   0.311E-01    0.341E-01
DAV:   3    -0.125500652731E+04    0.24842E-03   -0.36218E-03 59004   0.116E-01    0.130E-01
DAV:   4    -0.125500640485E+04    0.12246E-03   -0.32221E-04 37164   0.360E-02    0.114E-01
DAV:   5    -0.125500637649E+04    0.28361E-04   -0.17714E-04 24852   0.286E-02
  24 F= -.12550064E+04 E0= -.12550064E+04  d E =-.625246E-02  mag=    39.9997
       N       E                     dE             d eps       ncg     rms          rms(c)
DAV:   1    -0.125500963598E+04   -0.32311E-02   -0.47128E-01 43056   0.960E-01    0.250E-01
DAV:   2    -0.125501053542E+04   -0.89944E-03   -0.17753E-02 57660   0.236E-01    0.279E-01
DAV:   3    -0.125501039246E+04    0.14295E-03   -0.17957E-03 56868   0.794E-02    0.144E-01
DAV:   4    -0.125501033649E+04    0.55973E-04   -0.24343E-04 35220   0.345E-02
  25 F= -.12550103E+04 E0= -.12550103E+04  d E =-.396000E-02  mag=    39.9998
       N       E                     dE             d eps       ncg     rms          rms(c)
DAV:   1    -0.125501372517E+04   -0.33327E-02   -0.12908E+00 43344   0.156E+00    0.258E-01
DAV:   2    -0.125501702789E+04   -0.33027E-02   -0.32853E-02 49020   0.262E-01    0.137E-01
DAV:   3    -0.125501706636E+04   -0.38470E-04   -0.12184E-03 57936   0.544E-02    0.884E-02
DAV:   4    -0.125501700925E+04    0.57111E-04   -0.10093E-04 29508   0.210E-02
  26 F= -.12550170E+04 E0= -.12550170E+04  d E =-.667276E-02  mag=    39.9998
       N       E                     dE             d eps       ncg     rms          rms(c)
DAV:   1    -0.125501980052E+04   -0.27342E-02   -0.30012E+00 43296   0.238E+00    0.415E-01
DAV:   2    -0.125502699519E+04   -0.71947E-02   -0.76127E-02 48732   0.402E-01    0.236E-01
DAV:   3    -0.125502703247E+04   -0.37281E-04   -0.32326E-03 62304   0.898E-02    0.127E-01
DAV:   4    -0.125502684915E+04    0.18333E-03   -0.41959E-04 42912   0.380E-02    0.836E-02
DAV:   5    -0.125502678309E+04    0.66058E-04   -0.29736E-04 31296   0.297E-02
  27 F= -.12550268E+04 E0= -.12550268E+04  d E =-.977384E-02  mag=    39.9998
       N       E                     dE             d eps       ncg     rms          rms(c)
DAV:   1    -0.125502323838E+04    0.36108E-02   -0.33022E-01 43032   0.800E-01    0.190E-01
DAV:   2    -0.125502381724E+04   -0.57887E-03   -0.10633E-02 58272   0.179E-01    0.181E-01
DAV:   3    -0.125502376528E+04    0.51966E-04   -0.11733E-03 56616   0.618E-02    0.993E-02
DAV:   4    -0.125502371737E+04    0.47909E-04   -0.12625E-04 27360   0.245E-02
  28 F= -.12550237E+04 E0= -.12550237E+04  d E =0.306572E-02  mag=    39.9999
       N       E                     dE             d eps       ncg     rms          rms(c)
DAV:   1    -0.125502606784E+04   -0.23026E-02   -0.24026E+00 43296   0.213E+00    0.338E-01
DAV:   2    -0.125503244925E+04   -0.63814E-02   -0.62883E-02 50448   0.367E-01    0.205E-01
DAV:   3    -0.125503252996E+04   -0.80715E-04   -0.21853E-03 60852   0.711E-02    0.111E-01
DAV:   4    -0.125503241019E+04    0.11978E-03   -0.16848E-04 32580   0.288E-02    0.872E-02
DAV:   5    -0.125503234401E+04    0.66173E-04   -0.37623E-04 38088   0.302E-02
  29 F= -.12550323E+04 E0= -.12550323E+04  d E =-.862665E-02  mag=    39.9999
       N       E                     dE             d eps       ncg     rms          rms(c)
DAV:   1    -0.125503402413E+04   -0.16139E-02   -0.11980E-01 43152   0.482E-01    0.187E-01
DAV:   2    -0.125503408022E+04   -0.56094E-04   -0.54937E-03 59112   0.141E-01    0.194E-01
DAV:   3    -0.125503400904E+04    0.71185E-04   -0.85475E-04 52224   0.533E-02
  30 F= -.12550340E+04 E0= -.12550340E+04  d E =-.166502E-02  mag=    39.9999
       N       E                     dE             d eps       ncg     rms          rms(c)
DAV:   1    -0.125503683362E+04   -0.27534E-02   -0.11631E+00 43308   0.149E+00    0.263E-01
DAV:   2    -0.125503991753E+04   -0.30839E-02   -0.32859E-02 52872   0.288E-01    0.229E-01
DAV:   3    -0.125503989426E+04    0.23275E-04   -0.19736E-03 58608   0.799E-02    0.108E-01
DAV:   4    -0.125503981942E+04    0.74835E-04   -0.20055E-04 31584   0.307E-02
  31 F= -.12550398E+04 E0= -.12550398E+04  d E =-.581039E-02  mag=    39.9999
       N       E                     dE             d eps       ncg     rms          rms(c)
DAV:   1    -0.125504220683E+04   -0.23126E-02   -0.46184E-01 43428   0.934E-01    0.148E-01
DAV:   2    -0.125504329477E+04   -0.10879E-02   -0.11551E-02 53160   0.164E-01    0.116E-01
DAV:   3    -0.125504329178E+04    0.29851E-05   -0.54510E-04 46920   0.407E-02
  32 F= -.12550433E+04 E0= -.12550433E+04  d E =-.347236E-02  mag=    39.9999
       N       E                     dE             d eps       ncg     rms          rms(c)
DAV:   1    -0.125504549674E+04   -0.22020E-02   -0.20457E-01 43104   0.630E-01    0.188E-01
DAV:   2    -0.125504567543E+04   -0.17868E-03   -0.72919E-03 59520   0.148E-01    0.169E-01
DAV:   3    -0.125504558670E+04    0.88725E-04   -0.82061E-04 53724   0.560E-02
  33 F= -.12550456E+04 E0= -.12550456E+04  d E =-.229492E-02  mag=    39.9999
       N       E                     dE             d eps       ncg     rms          rms(c)
DAV:   1    -0.125504773394E+04   -0.20585E-02   -0.16517E+00 43296   0.177E+00    0.324E-01
DAV:   2    -0.125505207018E+04   -0.43362E-02   -0.46127E-02 53784   0.336E-01    0.288E-01
DAV:   3    -0.125505203366E+04    0.36518E-04   -0.26053E-03 60840   0.890E-02    0.160E-01
DAV:   4    -0.125505189534E+04    0.13832E-03   -0.47147E-04 44304   0.395E-02    0.118E-01
DAV:   5    -0.125505184661E+04    0.48728E-04   -0.45142E-04 42240   0.340E-02
  34 F= -.12550518E+04 E0= -.12550518E+04  d E =-.625991E-02  mag=    39.9999
       N       E                     dE             d eps       ncg     rms          rms(c)
DAV:   1    -0.125505414848E+04   -0.22531E-02   -0.50448E-01 43416   0.978E-01    0.209E-01
DAV:   2    -0.125505551558E+04   -0.13671E-02   -0.15384E-02 55320   0.211E-01    0.238E-01
DAV:   3    -0.125505549434E+04    0.21237E-04   -0.12611E-03 58080   0.629E-02    0.147E-01
DAV:   4    -0.125505543390E+04    0.60444E-04   -0.22848E-04 33732   0.280E-02
  35 F= -.12550554E+04 E0= -.12550554E+04  d E =-.358729E-02  mag=    39.9999
       N       E                     dE             d eps       ncg     rms          rms(c)
DAV:   1    -0.125505804364E+04   -0.25493E-02   -0.65850E-01 43368   0.111E+00    0.214E-01
DAV:   2    -0.125505952956E+04   -0.14859E-02   -0.17566E-02 52812   0.200E-01    0.147E-01
DAV:   3    -0.125505951942E+04    0.10136E-04   -0.10559E-03 56256   0.566E-02    0.656E-02
DAV:   4    -0.125505947104E+04    0.48384E-04   -0.11013E-04 27192   0.232E-02
  36 F= -.12550595E+04 E0= -.12550595E+04  d E =-.403714E-02  mag=    40.0000
       N       E                     dE             d eps       ncg     rms          rms(c)
DAV:   1    -0.125506101043E+04   -0.14910E-02   -0.12491E-01 43536   0.486E-01    0.945E-02
DAV:   2    -0.125506129022E+04   -0.27979E-03   -0.35478E-03 56748   0.973E-02    0.890E-02
DAV:   3    -0.125506127201E+04    0.18211E-04   -0.19987E-04 31500   0.307E-02
  37 F= -.12550613E+04 E0= -.12550613E+04  d E =-.180097E-02  mag=    40.0000
       N       E                     dE             d eps       ncg     rms          rms(c)
DAV:   1    -0.125506334886E+04   -0.20586E-02   -0.13157E+00 43344   0.158E+00    0.278E-01
DAV:   2    -0.125506672296E+04   -0.33741E-02   -0.35513E-02 53604   0.291E-01    0.233E-01
DAV:   3    -0.125506671969E+04    0.32699E-05   -0.20652E-03 61452   0.755E-02    0.141E-01
DAV:   4    -0.125506661467E+04    0.10502E-03   -0.27255E-04 37392   0.335E-02    0.108E-01
DAV:   5    -0.125506658332E+04    0.31351E-04   -0.45990E-04 42360   0.310E-02
  38 F= -.12550666E+04 E0= -.12550666E+04  d E =-.531131E-02  mag=    40.0000
       N       E                     dE             d eps       ncg     rms          rms(c)
DAV:   1    -0.125506842447E+04   -0.18098E-02   -0.33614E-01 43416   0.799E-01    0.191E-01
DAV:   2    -0.125506934758E+04   -0.92311E-03   -0.11452E-02 56388   0.193E-01    0.238E-01
DAV:   3    -0.125506930336E+04    0.44221E-04   -0.10803E-03 55044   0.597E-02    0.150E-01
DAV:   4    -0.125506924933E+04    0.54031E-04   -0.20310E-04 33168   0.267E-02
  39 F= -.12550692E+04 E0= -.12550692E+04  d E =-.266601E-02  mag=    40.0000
       N       E                     dE             d eps       ncg     rms          rms(c)
DAV:   1    -0.125507149171E+04   -0.21883E-02   -0.60936E-01 43368   0.107E+00    0.190E-01
DAV:   2    -0.125507299499E+04   -0.15033E-02   -0.15520E-02 50496   0.181E-01    0.962E-02
DAV:   3    -0.125507301356E+04   -0.18574E-04   -0.68656E-04 51348   0.419E-02
  40 F= -.12550730E+04 E0= -.12550730E+04  d E =-.376424E-02  mag=    40.0000
       N       E                     dE             d eps       ncg     rms          rms(c)
DAV:   1    -0.125507200897E+04    0.98602E-03   -0.95313E-02 43080   0.414E-01    0.159E-01
DAV:   2    -0.125507221590E+04   -0.20693E-03   -0.61322E-03 57612   0.140E-01    0.220E-01
DAV:   3    -0.125507213963E+04    0.76266E-04   -0.61577E-04 45108   0.431E-02
  41 F= -.12550721E+04 E0= -.12550721E+04  d E =0.873930E-03  mag=    40.0000
       N       E                     dE             d eps       ncg     rms          rms(c)
DAV:   1    -0.125507414721E+04   -0.19313E-02   -0.17512E+00 43344   0.183E+00    0.315E-01
DAV:   2    -0.125507864684E+04   -0.44996E-02   -0.52487E-02 54720   0.364E-01    0.302E-01
DAV:   3    -0.125507843219E+04    0.21465E-03   -0.31851E-03 58116   0.108E-01    0.137E-01
DAV:   4    -0.125507833616E+04    0.96030E-04   -0.37591E-04 40032   0.379E-02
  42 F= -.12550783E+04 E0= -.12550783E+04  d E =-.619652E-02  mag=    40.0000
       N       E                     dE             d eps       ncg     rms          rms(c)
DAV:   1    -0.125507996508E+04   -0.15329E-02   -0.28383E-01 43368   0.734E-01    0.165E-01
DAV:   2    -0.125508061868E+04   -0.65360E-03   -0.78018E-03 60360   0.162E-01    0.164E-01
DAV:   3    -0.125508061460E+04    0.40828E-05   -0.78869E-04 54324   0.547E-02
  43 F= -.12550806E+04 E0= -.12550806E+04  d E =-.227844E-02  mag=    40.0000
       N       E                     dE             d eps       ncg     rms          rms(c)
DAV:   1    -0.125508168726E+04   -0.10686E-02   -0.90087E-02 43392   0.414E-01    0.919E-02
DAV:   2    -0.125508195611E+04   -0.26885E-03   -0.32570E-03 58884   0.950E-02    0.100E-01
DAV:   3    -0.125508192275E+04    0.33358E-04   -0.22537E-04 32100   0.302E-02
  44 F= -.12550819E+04 E0= -.12550819E+04  d E =-.130815E-02  mag=    40.0000
       N       E                     dE             d eps       ncg     rms          rms(c)
DAV:   1    -0.125507231056E+04    0.96455E-02   -0.87353E+00 43296   0.405E+00    0.662E-01
DAV:   2    -0.125509508291E+04   -0.22772E-01   -0.22387E-01 49332   0.688E-01    0.385E-01
DAV:   3    -0.125509541197E+04   -0.32906E-03   -0.79711E-03 63192   0.142E-01    0.266E-01
DAV:   4    -0.125509507610E+04    0.33588E-03   -0.67467E-04 52308   0.473E-02    0.151E-01
DAV:   5    -0.125509471668E+04    0.35941E-03   -0.88235E-04 46776   0.501E-02    0.569E-02
DAV:   6    -0.125509473555E+04   -0.18868E-04   -0.34251E-04 36936   0.310E-02
  45 F= -.12550947E+04 E0= -.12550947E+04  d E =-.128128E-01  mag=    40.0000
       N       E                     dE             d eps       ncg     rms          rms(c)
DAV:   1    -0.125509300254E+04    0.17141E-02   -0.20994E-01 43080   0.629E-01    0.237E-01
DAV:   2    -0.125509367738E+04   -0.67483E-03   -0.63533E-03 62604   0.195E-01    0.219E-01
DAV:   3    -0.125509379480E+04   -0.11743E-03   -0.13800E-03 60708   0.782E-02    0.184E-01
DAV:   4    -0.125509376865E+04    0.26155E-04   -0.14115E-04 30144   0.198E-02
  46 F= -.12550938E+04 E0= -.12550938E+04  d E =0.966899E-03  mag=    40.0000
       N       E                     dE             d eps       ncg     rms          rms(c)
DAV:   1    -0.125509524973E+04   -0.14549E-02   -0.12358E+00 43320   0.153E+00    0.244E-01
DAV:   2    -0.125509857842E+04   -0.33287E-02   -0.32846E-02 50244   0.264E-01    0.143E-01
DAV:   3    -0.125509862732E+04   -0.48895E-04   -0.10951E-03 56568   0.531E-02    0.830E-02
DAV:   4    -0.125509857506E+04    0.52259E-04   -0.87526E-05 27888   0.222E-02
  47 F= -.12550986E+04 E0= -.12550986E+04  d E =-.480641E-02  mag=    40.0000
       N       E                     dE             d eps       ncg     rms          rms(c)
DAV:   1    -0.125509629288E+04    0.23344E-02   -0.17877E-01 43320   0.590E-01    0.153E-01
DAV:   2    -0.125509683611E+04   -0.54323E-03   -0.60888E-03 55956   0.140E-01    0.156E-01
DAV:   3    -0.125509683621E+04   -0.10824E-06   -0.51916E-04 44952   0.488E-02
  48 F= -.12550968E+04 E0= -.12550968E+04  d E =0.173884E-02  mag=    40.0000
       N       E                     dE             d eps       ncg     rms          rms(c)
DAV:   1    -0.125509696934E+04   -0.13324E-03   -0.24874E-02 43176   0.217E-01    0.124E-01
DAV:   2    -0.125509698763E+04   -0.18287E-04   -0.29369E-03 61536   0.962E-02    0.132E-01
DAV:   3    -0.125509689949E+04    0.88146E-04   -0.41304E-04 43752   0.397E-02
