       N       E                     dE             d eps       ncg     rms          rms(c)
DAV:   1     0.110840021111E+05    0.11084E+05   -0.39366E+05 43044   0.125E+03
DAV:   2     0.103683319926E+04   -0.10047E+05   -0.92513E+04 44352   0.350E+02
DAV:   3    -0.142283301637E+04   -0.24597E+04   -0.23809E+04 48480   0.180E+02
DAV:   4    -0.164837924785E+04   -0.22555E+03   -0.22201E+03 65232   0.607E+01
DAV:   5    -0.165703150094E+04   -0.86523E+01   -0.85285E+01 67656   0.137E+01
DAV:   6    -0.165743439887E+04   -0.40290E+00   -0.39902E+00 68124   0.253E+00
DAV:   7    -0.165745939088E+04   -0.24992E-01   -0.24875E-01 68304   0.636E-01
DAV:   8    -0.165746124375E+04   -0.18529E-02   -0.18481E-02 63720   0.147E-01
DAV:   9    -0.165746139437E+04   -0.15062E-03   -0.15036E-03 44472   0.431E-02
DAV:  10    -0.165746140766E+04   -0.13297E-04   -0.13256E-04 36252   0.160E-02
DAV:  11    -0.165746141019E+04   -0.25258E-05   -0.25080E-05 33768   0.101E-02
DAV:  12    -0.165746141149E+04   -0.12998E-05   -0.12899E-05 32784   0.719E-03    0.162E+02
DAV:  13    -0.121746658167E+04    0.43999E+03   -0.25483E+03 63600   0.807E+01    0.101E+02
DAV:  14    -0.126108615497E+04   -0.43620E+02   -0.77045E+02 67500   0.469E+01    0.671E+01
DAV:  15    -0.125205078844E+04    0.90354E+01   -0.95717E+01 62124   0.166E+01    0.414E+01
DAV:  16    -0.126788128401E+04   -0.15830E+02   -0.94542E+01 63696   0.204E+01    0.640E+01
DAV:  17    -0.125593958766E+04    0.11942E+02   -0.26315E+02 62832   0.342E+01    0.374E+01
DAV:  18    -0.125833509394E+04   -0.23955E+01   -0.58526E+01 61812   0.877E+00    0.196E+01
DAV:  19    -0.125440232573E+04    0.39328E+01   -0.85363E+00 62460   0.479E+00    0.134E+01
DAV:  20    -0.125203360387E+04    0.23687E+01   -0.30957E+00 69276   0.509E+00    0.783E+00
DAV:  21    -0.125142384466E+04    0.60976E+00   -0.24173E+00 66084   0.294E+00    0.623E+00
DAV:  22    -0.125132037928E+04    0.10347E+00   -0.66492E-01 59436   0.116E+00    0.554E+00
DAV:  23    -0.125108138683E+04    0.23899E+00   -0.10027E-01 64056   0.971E-01    0.413E+00
DAV:  24    -0.125091607253E+04    0.16531E+00   -0.12591E-01 71904   0.114E+00    0.286E+00
DAV:  25    -0.125078266253E+04    0.13341E+00   -0.20971E-01 70140   0.144E+00    0.163E+00
DAV:  26    -0.125076224189E+04    0.20421E-01   -0.30990E-01 64044   0.964E-01    0.109E+00
DAV:  27    -0.125076281201E+04   -0.57012E-03   -0.82005E-02 55212   0.395E-01    0.774E-01
DAV:  28    -0.125075906704E+04    0.37450E-02   -0.99232E-03 64860   0.215E-01    0.418E-01
DAV:  29    -0.125075988103E+04   -0.81399E-03   -0.50966E-03 60924   0.151E-01    0.274E-01
DAV:  30    -0.125076097268E+04   -0.10917E-02   -0.37116E-03 60864   0.956E-02    0.217E-01
DAV:  31    -0.125076100593E+04   -0.33249E-04   -0.12257E-03 57600   0.982E-02    0.880E-02
DAV:  32    -0.125076115447E+04   -0.14854E-03   -0.93646E-04 54852   0.547E-02    0.973E-02
DAV:  33    -0.125076113594E+04    0.18535E-04   -0.41547E-04 42300   0.353E-02
   1 F= -.12507611E+04 E0= -.12507558E+04  d E =-.125076E+04  mag=    39.8928
       N       E                     dE             d eps       ncg     rms          rms(c)
DAV:   1    -0.125294512606E+04   -0.21840E+01   -0.18556E+03 43008   0.600E+01    0.224E+01
DAV:   2    -0.125522770911E+04   -0.22826E+01   -0.98733E+01 63264   0.244E+01    0.251E+01
DAV:   3    -0.125523051670E+04   -0.28076E-02   -0.19230E+01 62388   0.735E+00    0.156E+01
DAV:   4    -0.125435478351E+04    0.87573E+00   -0.30414E+00 63900   0.293E+00    0.106E+01
DAV:   5    -0.125399606556E+04    0.35872E+00   -0.19911E+00 58704   0.323E+00    0.579E+00
DAV:   6    -0.125397150966E+04    0.24556E-01   -0.15802E+00 63108   0.229E+00    0.299E+00
DAV:   7    -0.125396587076E+04    0.56389E-02   -0.70176E-01 64656   0.190E+00    0.188E+00
DAV:   8    -0.125397057296E+04   -0.47022E-02   -0.10721E-01 57540   0.609E-01    0.948E-01
DAV:   9    -0.125396831757E+04    0.22554E-02   -0.21774E-02 63600   0.311E-01    0.626E-01
DAV:  10    -0.125396854940E+04   -0.23182E-03   -0.22450E-02 62028   0.246E-01    0.418E-01
DAV:  11    -0.125396816644E+04    0.38296E-03   -0.61756E-03 63240   0.149E-01    0.187E-01
DAV:  12    -0.125396799300E+04    0.17344E-03   -0.15624E-03 61344   0.762E-02    0.119E-01
DAV:  13    -0.125396802059E+04   -0.27587E-04   -0.59627E-04 44040   0.375E-02
   2 F= -.12539680E+04 E0= -.12539680E+04  d E =-.320688E+01  mag=    39.9332
       N       E                     dE             d eps       ncg     rms          rms(c)
DAV:   1    -0.125675790690E+04   -0.27899E+01   -0.36523E+02 43176   0.268E+01    0.132E+01
DAV:   2    -0.125612162135E+04    0.63629E+00   -0.25339E+01 58044   0.106E+01    0.166E+01
DAV:   3    -0.125579007728E+04    0.33154E+00   -0.60752E+00 62868   0.353E+00    0.995E+00
DAV:   4    -0.125565397627E+04    0.13610E+00   -0.21812E+00 63648   0.253E+00    0.781E+00
DAV:   5    -0.125554192132E+04    0.11205E+00   -0.85467E-01 60912   0.211E+00    0.377E+00
DAV:   6    -0.125548286198E+04    0.59059E-01   -0.83483E-01 63264   0.135E+00    0.149E+00
DAV:   7    -0.125548101737E+04    0.18446E-02   -0.24132E-01 62088   0.732E-01    0.843E-01
DAV:   8    -0.125547620954E+04    0.48078E-02   -0.36198E-02 60864   0.403E-01    0.395E-01
DAV:   9    -0.125547653383E+04   -0.32429E-03   -0.17793E-02 62088   0.253E-01    0.374E-01
DAV:  10    -0.125547649691E+04    0.36922E-04   -0.36454E-03 58404   0.104E-01    0.215E-01
DAV:  11    -0.125547638745E+04    0.10947E-03   -0.21496E-03 62544   0.689E-02    0.106E-01
DAV:  12    -0.125547634959E+04    0.37852E-04   -0.32887E-04 35772   0.351E-02
   3 F= -.12554763E+04 E0= -.12554763E+04  d E =-.150833E+01  mag=    39.9586
       N       E                     dE             d eps       ncg     rms          rms(c)
DAV:   1    -0.125598644548E+04   -0.51006E+00   -0.13285E+02 43008   0.162E+01    0.545E+00
DAV:   2    -0.125628502304E+04   -0.29858E+00   -0.76666E+00 59904   0.521E+00    0.722E+00
DAV:   3    -0.125618356193E+04    0.10146E+00   -0.86517E-01 55932   0.164E+00    0.499E+00
DAV:   4    -0.125610617729E+04    0.77385E-01   -0.26092E-01 59208   0.715E-01    0.375E+00
DAV:   5    -0.125607572107E+04    0.30456E-01   -0.16989E-01 55332   0.717E-01    0.175E+00
DAV:   6    -0.125606626817E+04    0.94529E-02   -0.11773E-01 65076   0.657E-01    0.901E-01
DAV:   7    -0.125606560049E+04    0.66768E-03   -0.54377E-02 51324   0.326E-01    0.613E-01
DAV:   8    -0.125606557852E+04    0.21969E-04   -0.58634E-03 64260   0.137E-01    0.350E-01
DAV:   9    -0.125606542762E+04    0.15089E-03   -0.31490E-03 63096   0.108E-01    0.210E-01
DAV:  10    -0.125606508529E+04    0.34234E-03   -0.13342E-03 57900   0.705E-02    0.133E-01
DAV:  11    -0.125606504524E+04    0.40043E-04   -0.75848E-04 47364   0.382E-02
   4 F= -.12560650E+04 E0= -.12560650E+04  d E =-.588696E+00  mag=    39.9729
       N       E                     dE             d eps       ncg     rms          rms(c)
DAV:   1    -0.125616048919E+04   -0.95404E-01   -0.10820E+02 43008   0.141E+01    0.472E+00
DAV:   2    -0.125615422730E+04    0.62619E-02   -0.53385E+00 59676   0.528E+00    0.640E+00
DAV:   3    -0.125617420441E+04   -0.19977E-01   -0.14177E+00 57528   0.172E+00    0.467E+00
DAV:   4    -0.125609644482E+04    0.77760E-01   -0.29394E-01 62412   0.850E-01    0.394E+00
DAV:   5    -0.125607273270E+04    0.23712E-01   -0.26092E-01 60852   0.899E-01    0.237E+00
DAV:   6    -0.125604612697E+04    0.26606E-01   -0.21496E-01 63384   0.964E-01    0.136E+00
DAV:   7    -0.125604158367E+04    0.45433E-02   -0.16739E-01 63552   0.768E-01    0.124E+00
DAV:   8    -0.125604258696E+04   -0.10033E-02   -0.14456E-02 60288   0.281E-01    0.586E-01
DAV:   9    -0.125604196191E+04    0.62504E-03   -0.57178E-03 63480   0.137E-01    0.358E-01
DAV:  10    -0.125604123510E+04    0.72681E-03   -0.28613E-03 55524   0.803E-02    0.234E-01
DAV:  11    -0.125604111549E+04    0.11961E-03   -0.75345E-04 51432   0.425E-02    0.141E-01
DAV:  12    -0.125604104196E+04    0.73537E-04   -0.16592E-04 29844   0.296E-02
   5 F= -.12560410E+04 E0= -.12560410E+04  d E =0.240033E-01  mag=    39.9827
       N       E                     dE             d eps       ncg     rms          rms(c)
DAV:   1    -0.125642280728E+04   -0.38169E+00   -0.41919E+01 43008   0.868E+00    0.291E+00
DAV:   2    -0.125647932115E+04   -0.56514E-01   -0.23072E+00 60168   0.314E+00    0.423E+00
DAV:   3    -0.125647341737E+04    0.59038E-02   -0.45650E-01 58056   0.100E+00    0.301E+00
DAV:   4    -0.125644190862E+04    0.31509E-01   -0.11393E-01 59952   0.520E-01    0.250E+00
DAV:   5    -0.125643589776E+04    0.60109E-02   -0.13083E-01 61212   0.615E-01    0.149E+00
DAV:   6    -0.125642782414E+04    0.80736E-02   -0.10412E-01 62724   0.568E-01    0.936E-01
DAV:   7    -0.125642336798E+04    0.44562E-02   -0.59285E-02 62352   0.400E-01    0.674E-01
DAV:   8    -0.125642363797E+04   -0.26999E-03   -0.59411E-03 60468   0.176E-01    0.301E-01
DAV:   9    -0.125642329146E+04    0.34651E-03   -0.32372E-03 62040   0.108E-01    0.142E-01
DAV:  10    -0.125642324317E+04    0.48292E-04   -0.11630E-03 54768   0.479E-02    0.116E-01
DAV:  11    -0.125642320401E+04    0.39153E-04   -0.13929E-04 29256   0.219E-02
   6 F= -.12564232E+04 E0= -.12564232E+04  d E =-.382162E+00  mag=    39.9885
       N       E                     dE             d eps       ncg     rms          rms(c)
DAV:   1    -0.125646354986E+04   -0.40307E-01   -0.16289E+01 43296   0.563E+00    0.888E-01
DAV:   2    -0.125650742002E+04   -0.43870E-01   -0.48962E-01 53688   0.108E+00    0.867E-01
DAV:   3    -0.125650706126E+04    0.35876E-03   -0.28697E-02 61836   0.278E-01    0.541E-01
DAV:   4    -0.125650543964E+04    0.16216E-02   -0.50875E-03 61908   0.122E-01    0.392E-01
DAV:   5    -0.125650436937E+04    0.10703E-02   -0.38846E-03 54888   0.144E-01    0.177E-01
DAV:   6    -0.125650449484E+04   -0.12546E-03   -0.33542E-03 59676   0.878E-02    0.104E-01
DAV:   7    -0.125650444938E+04    0.45457E-04   -0.57681E-04 46656   0.400E-02
   7 F= -.12565044E+04 E0= -.12565044E+04  d E =-.812454E-01  mag=    39.9912
       N       E                     dE             d eps       ncg     rms          rms(c)
DAV:   1    -0.125653470107E+04   -0.30206E-01   -0.12413E+01 43032   0.487E+00    0.890E-01
DAV:   2    -0.125656727807E+04   -0.32577E-01   -0.38330E-01 53448   0.927E-01    0.797E-01
DAV:   3    -0.125656731618E+04   -0.38106E-04   -0.21903E-02 60588   0.235E-01    0.529E-01
DAV:   4    -0.125656606099E+04    0.12552E-02   -0.59720E-03 62928   0.129E-01    0.362E-01
DAV:   5    -0.125656573021E+04    0.33078E-03   -0.29550E-03 61728   0.110E-01    0.195E-01
DAV:   6    -0.125656570334E+04    0.26873E-04   -0.92252E-04 53280   0.566E-02
   8 F= -.12565657E+04 E0= -.12565657E+04  d E =-.612540E-01  mag=    39.9931
       N       E                     dE             d eps       ncg     rms          rms(c)
DAV:   1    -0.125658666846E+04   -0.20938E-01   -0.77093E+00 43104   0.388E+00    0.649E-01
DAV:   2    -0.125660687805E+04   -0.20210E-01   -0.23635E-01 53016   0.762E-01    0.632E-01
DAV:   3    -0.125660670483E+04    0.17322E-03   -0.15541E-02 62124   0.205E-01    0.408E-01
DAV:   4    -0.125660577496E+04    0.92987E-03   -0.36306E-03 61248   0.103E-01    0.284E-01
DAV:   5    -0.125660524869E+04    0.52627E-03   -0.17265E-03 58884   0.114E-01    0.130E-01
DAV:   6    -0.125660533370E+04   -0.85012E-04   -0.19795E-03 58368   0.694E-02    0.805E-02
DAV:   7    -0.125660531227E+04    0.21430E-04   -0.32385E-04 36384   0.304E-02
   9 F= -.12566053E+04 E0= -.12566053E+04  d E =-.396089E-01  mag=    39.9947
       N       E                     dE             d eps       ncg     rms          rms(c)
DAV:   1    -0.125662538806E+04   -0.20054E-01   -0.44026E+00 43176   0.289E+00    0.529E-01
DAV:   2    -0.125663657530E+04   -0.11187E-01   -0.13431E-01 53556   0.558E-01    0.499E-01
DAV:   3    -0.125663650578E+04    0.69518E-04   -0.98310E-03 58296   0.156E-01    0.306E-01
DAV:   4    -0.125663601242E+04    0.49336E-03   -0.28059E-03 62964   0.941E-02    0.247E-01
DAV:   5    -0.125663594909E+04    0.63322E-04   -0.14684E-03 61308   0.672E-02    0.126E-01
DAV:   6    -0.125663585120E+04    0.97892E-04   -0.23317E-04 30756   0.392E-02
  10 F= -.12566359E+04 E0= -.12566359E+04  d E =-.305389E-01  mag=    39.9958
       N       E                     dE             d eps       ncg     rms          rms(c)
DAV:   1    -0.125664897569E+04   -0.13027E-01   -0.66930E+00 43008   0.360E+00    0.586E-01
DAV:   2    -0.125666762489E+04   -0.18649E-01   -0.20066E-01 53400   0.673E-01    0.530E-01
DAV:   3    -0.125666745495E+04    0.16995E-03   -0.93400E-03 60432   0.172E-01    0.309E-01
DAV:   4    -0.125666701723E+04    0.43772E-03   -0.14483E-03 60036   0.722E-02    0.217E-01
DAV:   5    -0.125666675031E+04    0.26692E-03   -0.11929E-03 61140   0.852E-02    0.894E-02
DAV:   6    -0.125666679900E+04   -0.48690E-04   -0.94207E-04 50280   0.487E-02
  11 F= -.12566668E+04 E0= -.12566668E+04  d E =-.309478E-01  mag=    39.9966
       N       E                     dE             d eps       ncg     rms          rms(c)
DAV:   1    -0.125667985330E+04   -0.13103E-01   -0.30012E+00 43176   0.240E+00    0.473E-01
DAV:   2    -0.125668669845E+04   -0.68452E-02   -0.91910E-02 53772   0.456E-01    0.376E-01
DAV:   3    -0.125668654686E+04    0.15159E-03   -0.70440E-03 58404   0.144E-01    0.195E-01
DAV:   4    -0.125668628230E+04    0.26456E-03   -0.14016E-03 60600   0.724E-02    0.159E-01
DAV:   5    -0.125668623925E+04    0.43054E-04   -0.72396E-04 49608   0.461E-02
  12 F= -.12566862E+04 E0= -.12566862E+04  d E =-.194402E-01  mag=    39.9972
       N       E                     dE             d eps       ncg     rms          rms(c)
DAV:   1    -0.125669544863E+04   -0.91663E-02   -0.35016E+00 43008   0.261E+00    0.438E-01
DAV:   2    -0.125670504516E+04   -0.95965E-02   -0.10665E-01 54072   0.502E-01    0.414E-01
DAV:   3    -0.125670484944E+04    0.19572E-03   -0.54756E-03 59028   0.134E-01    0.244E-01
DAV:   4    -0.125670458946E+04    0.25997E-03   -0.87775E-04 53052   0.593E-02    0.181E-01
DAV:   5    -0.125670447843E+04    0.11104E-03   -0.83301E-04 55764   0.653E-02    0.806E-02
DAV:   6    -0.125670447996E+04   -0.15364E-05   -0.49876E-04 44436   0.380E-02
  13 F= -.12567045E+04 E0= -.12567045E+04  d E =-.182407E-01  mag=    39.9978
       N       E                     dE             d eps       ncg     rms          rms(c)
DAV:   1    -0.125671292288E+04   -0.84445E-02   -0.17891E+00 43104   0.184E+00    0.331E-01
DAV:   2    -0.125671736225E+04   -0.44394E-02   -0.51929E-02 50856   0.331E-01    0.253E-01
DAV:   3    -0.125671736606E+04   -0.38151E-05   -0.33480E-03 59040   0.955E-02    0.138E-01
DAV:   4    -0.125671721318E+04    0.15288E-03   -0.70190E-04 50748   0.523E-02    0.108E-01
DAV:   5    -0.125671719700E+04    0.16187E-04   -0.43594E-04 38904   0.372E-02
  14 F= -.12567172E+04 E0= -.12567172E+04  d E =-.127170E-01  mag=    39.9982
       N       E                     dE             d eps       ncg     rms          rms(c)
DAV:   1    -0.125672330875E+04   -0.60956E-02   -0.35453E+00 43008   0.262E+00    0.399E-01
DAV:   2    -0.125673296426E+04   -0.96555E-02   -0.10018E-01 50628   0.468E-01    0.314E-01
DAV:   3    -0.125673304473E+04   -0.80468E-04   -0.49575E-03 60300   0.114E-01    0.199E-01
DAV:   4    -0.125673280511E+04    0.23962E-03   -0.71882E-04 51240   0.536E-02    0.143E-01
DAV:   5    -0.125673267679E+04    0.12832E-03   -0.95964E-04 57864   0.731E-02    0.591E-02
DAV:   6    -0.125673269969E+04   -0.22897E-04   -0.57660E-04 45828   0.388E-02
  15 F= -.12567327E+04 E0= -.12567327E+04  d E =-.155027E-01  mag=    39.9985
       N       E                     dE             d eps       ncg     rms          rms(c)
DAV:   1    -0.125673797788E+04   -0.53011E-02   -0.64398E-01 43128   0.110E+00    0.240E-01
DAV:   2    -0.125673944087E+04   -0.14630E-02   -0.20573E-02 54576   0.221E-01    0.215E-01
DAV:   3    -0.125673939411E+04    0.46761E-04   -0.19016E-03 57084   0.730E-02    0.115E-01
DAV:   4    -0.125673931703E+04    0.77083E-04   -0.40020E-04 39000   0.394E-02
  16 F= -.12567393E+04 E0= -.12567393E+04  d E =-.661734E-02  mag=    39.9987
       N       E                     dE             d eps       ncg     rms          rms(c)
DAV:   1    -0.125674422909E+04   -0.48350E-02   -0.27854E+00 43008   0.232E+00    0.341E-01
DAV:   2    -0.125675156976E+04   -0.73407E-02   -0.76052E-02 49740   0.406E-01    0.257E-01
DAV:   3    -0.125675165395E+04   -0.84186E-04   -0.37703E-03 60840   0.966E-02    0.168E-01
DAV:   4    -0.125675147615E+04    0.17780E-03   -0.41354E-04 42912   0.424E-02    0.119E-01
DAV:   5    -0.125675136240E+04    0.11375E-03   -0.86354E-04 55152   0.696E-02    0.510E-02
DAV:   6    -0.125675138581E+04   -0.23416E-04   -0.54784E-04 45480   0.363E-02
  17 F= -.12567514E+04 E0= -.12567514E+04  d E =-.120688E-01  mag=    39.9990
       N       E                     dE             d eps       ncg     rms          rms(c)
DAV:   1    -0.125675580154E+04   -0.44391E-02   -0.74908E-01 43104   0.119E+00    0.236E-01
DAV:   2    -0.125675760374E+04   -0.18022E-02   -0.22193E-02 52020   0.223E-01    0.195E-01
DAV:   3    -0.125675763222E+04   -0.28482E-04   -0.19419E-03 57660   0.706E-02    0.108E-01
DAV:   4    -0.125675754864E+04    0.83583E-04   -0.34998E-04 37920   0.382E-02
  18 F= -.12567575E+04 E0= -.12567575E+04  d E =-.616283E-02  mag=    39.9991
       N       E                     dE             d eps       ncg     rms          rms(c)
DAV:   1    -0.125676155190E+04   -0.39197E-02   -0.17421E+00 43008   0.183E+00    0.274E-01
DAV:   2    -0.125676611596E+04   -0.45641E-02   -0.47433E-02 50004   0.324E-01    0.218E-01
DAV:   3    -0.125676616770E+04   -0.51736E-04   -0.24816E-03 60252   0.797E-02    0.137E-01
DAV:   4    -0.125676604524E+04    0.12246E-03   -0.22894E-04 35484   0.351E-02    0.100E-01
DAV:   5    -0.125676600213E+04    0.43113E-04   -0.85375E-04 51828   0.597E-02
  19 F= -.12567660E+04 E0= -.12567660E+04  d E =-.845349E-02  mag=    39.9993
       N       E                     dE             d eps       ncg     rms          rms(c)
DAV:   1    -0.125676993519E+04   -0.38899E-02   -0.83495E-01 43008   0.125E+00    0.258E-01
DAV:   2    -0.125677185076E+04   -0.19156E-02   -0.24400E-02 51888   0.235E-01    0.194E-01
DAV:   3    -0.125677191737E+04   -0.66611E-04   -0.22432E-03 57900   0.765E-02    0.105E-01
DAV:   4    -0.125677182587E+04    0.91506E-04   -0.31971E-04 36648   0.375E-02
  20 F= -.12567718E+04 E0= -.12567718E+04  d E =-.582374E-02  mag=    39.9994
       N       E                     dE             d eps       ncg     rms          rms(c)
DAV:   1    -0.125677517120E+04   -0.32538E-02   -0.97810E-01 43056   0.137E+00    0.204E-01
DAV:   2    -0.125677764673E+04   -0.24755E-02   -0.25979E-02 49728   0.239E-01    0.157E-01
DAV:   3    -0.125677767663E+04   -0.29901E-04   -0.13580E-03 57084   0.584E-02    0.103E-01
DAV:   4    -0.125677761127E+04    0.65361E-04   -0.93584E-05 26916   0.249E-02
  21 F= -.12567776E+04 E0= -.12567776E+04  d E =-.578540E-02  mag=    39.9995
       N       E                     dE             d eps       ncg     rms          rms(c)
DAV:   1    -0.125678051473E+04   -0.28381E-02   -0.20835E+00 43008   0.199E+00    0.293E-01
DAV:   2    -0.125678561790E+04   -0.51032E-02   -0.52632E-02 47520   0.325E-01    0.187E-01
DAV:   3    -0.125678572517E+04   -0.10727E-03   -0.25296E-03 61308   0.673E-02    0.128E-01
DAV:   4    -0.125678558695E+04    0.13821E-03   -0.27198E-04 36852   0.372E-02    0.861E-02
DAV:   5    -0.125678555870E+04    0.28250E-04   -0.63502E-04 48408   0.507E-02
  22 F= -.12567856E+04 E0= -.12567856E+04  d E =-.794743E-02  mag=    39.9996
       N       E                     dE             d eps       ncg     rms          rms(c)
DAV:   1    -0.125678763318E+04   -0.20462E-02   -0.25636E+00 43008   0.220E+00    0.460E-01
DAV:   2    -0.125679355243E+04   -0.59193E-02   -0.69742E-02 51600   0.409E-01    0.295E-01
DAV:   3    -0.125679416041E+04   -0.60798E-03   -0.78716E-03 61332   0.137E-01    0.197E-01
DAV:   4    -0.125679391713E+04    0.24328E-03   -0.74614E-04 53628   0.499E-02    0.104E-01
DAV:   5    -0.125679383280E+04    0.84323E-04   -0.91042E-04 50100   0.479E-02
  23 F= -.12567938E+04 E0= -.12567938E+04  d E =-.827410E-02  mag=    39.9996
       N       E                     dE             d eps       ncg     rms          rms(c)
DAV:   1    -0.125679346468E+04    0.45245E-03   -0.58429E-02 43152   0.342E-01    0.169E-01
DAV:   2    -0.125679336410E+04    0.10058E-03   -0.42476E-03 60204   0.135E-01    0.172E-01
DAV:   3    -0.125679329300E+04    0.71106E-04   -0.95128E-04 54360   0.539E-02
  24 F= -.12567933E+04 E0= -.12567933E+04  d E =0.539807E-03  mag=    39.9997
       N       E                     dE             d eps       ncg     rms          rms(c)
DAV:   1    -0.125679528748E+04   -0.19234E-02   -0.14363E+00 43032   0.166E+00    0.231E-01
DAV:   2    -0.125679887488E+04   -0.35874E-02   -0.37671E-02 48636   0.278E-01    0.145E-01
DAV:   3    -0.125679887077E+04    0.41033E-05   -0.14969E-03 58104   0.637E-02    0.104E-01
DAV:   4    -0.125679880639E+04    0.64388E-04   -0.20670E-04 30336   0.300E-02
  25 F= -.12567988E+04 E0= -.12567988E+04  d E =-.551339E-02  mag=    39.9997
       N       E                     dE             d eps       ncg     rms          rms(c)
DAV:   1    -0.125679983901E+04   -0.96824E-03   -0.26050E+00 43008   0.222E+00    0.396E-01
DAV:   2    -0.125680624534E+04   -0.64063E-02   -0.64504E-02 48924   0.376E-01    0.266E-01
DAV:   3    -0.125680664938E+04   -0.40404E-03   -0.50328E-03 62196   0.972E-02    0.163E-01
DAV:   4    -0.125680643919E+04    0.21019E-03   -0.53149E-04 45468   0.454E-02    0.105E-01
DAV:   5    -0.125680638659E+04    0.52595E-04   -0.89426E-04 52176   0.516E-02
  26 F= -.12568064E+04 E0= -.12568064E+04  d E =-.758020E-02  mag=    39.9998
       N       E                     dE             d eps       ncg     rms          rms(c)
DAV:   1    -0.125681034509E+04   -0.39059E-02   -0.75548E-01 43080   0.123E+00    0.406E-01
DAV:   2    -0.125681023321E+04    0.11188E-03   -0.29690E-02 59304   0.281E-01    0.304E-01
DAV:   3    -0.125681001389E+04    0.21931E-03   -0.41030E-03 58200   0.118E-01    0.126E-01
DAV:   4    -0.125680990229E+04    0.11161E-03   -0.81349E-04 53892   0.551E-02    0.861E-02
DAV:   5    -0.125680987666E+04    0.25631E-04   -0.27311E-04 37524   0.298E-02
  27 F= -.12568099E+04 E0= -.12568099E+04  d E =-.349007E-02  mag=    39.9998
       N       E                     dE             d eps       ncg     rms          rms(c)
DAV:   1    -0.125680894104E+04    0.96125E-03   -0.28848E+00 43008   0.236E+00    0.383E-01
DAV:   2    -0.125681683657E+04   -0.78955E-02   -0.79767E-02 49608   0.418E-01    0.301E-01
DAV:   3    -0.125681689930E+04   -0.62731E-04   -0.38960E-03 58824   0.103E-01    0.162E-01
DAV:   4    -0.125681668159E+04    0.21771E-03   -0.67668E-04 50484   0.562E-02    0.119E-01
DAV:   5    -0.125681664927E+04    0.32320E-04   -0.84396E-04 50736   0.550E-02
  28 F= -.12568166E+04 E0= -.12568166E+04  d E =-.677261E-02  mag=    39.9998
       N       E                     dE             d eps       ncg     rms          rms(c)
DAV:   1    -0.125681729190E+04   -0.61031E-03   -0.18213E-01 43104   0.580E-01    0.224E-01
DAV:   2    -0.125681710087E+04    0.19103E-03   -0.88449E-03 57660   0.191E-01    0.264E-01
DAV:   3    -0.125681711408E+04   -0.13205E-04   -0.20396E-03 54228   0.671E-02    0.184E-01
DAV:   4    -0.125681695570E+04    0.15837E-03   -0.72061E-04 45900   0.406E-02    0.138E-01
DAV:   5    -0.125681690392E+04    0.51782E-04   -0.21687E-04 35220   0.346E-02
  29 F= -.12568169E+04 E0= -.12568169E+04  d E =-.254652E-03  mag=    39.9999
       N       E                     dE             d eps       ncg     rms          rms(c)
DAV:   1    -0.125681915476E+04   -0.21991E-02   -0.54883E-01 43104   0.103E+00    0.206E-01
DAV:   2    -0.125682024695E+04   -0.10922E-02   -0.16100E-02 50448   0.189E-01    0.134E-01
DAV:   3    -0.125682021814E+04    0.28810E-04   -0.10344E-03 57084   0.569E-02    0.841E-02
DAV:   4    -0.125682015569E+04    0.62452E-04   -0.25445E-04 35232   0.336E-02
  30 F= -.12568202E+04 E0= -.12568202E+04  d E =-.325176E-02  mag=    39.9999
       N       E                     dE             d eps       ncg     rms          rms(c)
DAV:   1    -0.125682094331E+04   -0.72517E-03   -0.15208E+00 43008   0.170E+00    0.229E-01
DAV:   2    -0.125682462404E+04   -0.36807E-02   -0.38984E-02 48300   0.282E-01    0.149E-01
DAV:   3    -0.125682464050E+04   -0.16459E-04   -0.16730E-03 58584   0.588E-02    0.961E-02
DAV:   4    -0.125682452583E+04    0.11467E-03   -0.38591E-04 42456   0.429E-02    0.688E-02
DAV:   5    -0.125682452751E+04   -0.16850E-05   -0.43355E-04 43992   0.382E-02
  31 F= -.12568245E+04 E0= -.12568245E+04  d E =-.437183E-02  mag=    39.9999
       N       E                     dE             d eps       ncg     rms          rms(c)
DAV:   1    -0.125682552354E+04   -0.99771E-03   -0.10806E-01 43272   0.450E-01    0.120E-01
DAV:   2    -0.125682570174E+04   -0.17820E-03   -0.33802E-03 56952   0.110E-01    0.105E-01
DAV:   3    -0.125682574427E+04   -0.42523E-04   -0.87312E-04 51324   0.428E-02
  32 F= -.12568257E+04 E0= -.12568257E+04  d E =-.121676E-02  mag=    39.9999
       N       E                     dE             d eps       ncg     rms          rms(c)
DAV:   1    -0.125682696006E+04   -0.12583E-02   -0.33295E-01 43104   0.793E-01    0.129E-01
DAV:   2    -0.125682776877E+04   -0.80871E-03   -0.85641E-03 48888   0.134E-01    0.822E-02
DAV:   3    -0.125682777328E+04   -0.45096E-05   -0.42618E-04 43200   0.307E-02
  33 F= -.12568278E+04 E0= -.12568278E+04  d E =-.202901E-02  mag=    39.9999
       N       E                     dE             d eps       ncg     rms          rms(c)
DAV:   1    -0.125682876834E+04   -0.99957E-03   -0.12546E-01 43128   0.490E-01    0.900E-02
DAV:   2    -0.125682899105E+04   -0.22271E-03   -0.32381E-03 50148   0.832E-02    0.561E-02
DAV:   3    -0.125682897345E+04    0.17595E-04   -0.12316E-04 28332   0.243E-02
  34 F= -.12568290E+04 E0= -.12568290E+04  d E =-.120018E-02  mag=    39.9999
       N       E                     dE             d eps       ncg     rms          rms(c)
DAV:   1    -0.125682810475E+04    0.88630E-03   -0.25324E+00 43008   0.220E+00    0.296E-01
DAV:   2    -0.125683419921E+04   -0.60945E-02   -0.65686E-02 46944   0.361E-01    0.180E-01
DAV:   3    -0.125683416996E+04    0.29255E-04   -0.26505E-03 60960   0.746E-02    0.120E-01
DAV:   4    -0.125683397969E+04    0.19027E-03   -0.74968E-04 51936   0.577E-02    0.731E-02
DAV:   5    -0.125683397609E+04    0.36018E-05   -0.53182E-04 46308   0.384E-02
  35 F= -.12568340E+04 E0= -.12568340E+04  d E =-.500264E-02  mag=    39.9999
       N       E                     dE             d eps       ncg     rms          rms(c)
DAV:   1    -0.125683136824E+04    0.26114E-02   -0.48338E-01 43056   0.974E-01    0.187E-01
DAV:   2    -0.125683214701E+04   -0.77877E-03   -0.13831E-02 51384   0.190E-01    0.132E-01
DAV:   3    -0.125683211877E+04    0.28245E-04   -0.12353E-03 60228   0.584E-02    0.899E-02
DAV:   4    -0.125683206872E+04    0.50046E-04   -0.25755E-04 34152   0.275E-02
  36 F= -.12568321E+04 E0= -.12568321E+04  d E =0.190737E-02  mag=    39.9999
       N       E                     dE             d eps       ncg     rms          rms(c)
DAV:   1    -0.125683263604E+04   -0.51727E-03   -0.10345E+00 43008   0.140E+00    0.192E-01
DAV:   2    -0.125683538301E+04   -0.27470E-02   -0.27779E-02 47844   0.234E-01    0.120E-01
DAV:   3    -0.125683541963E+04   -0.36619E-04   -0.11654E-03 56304   0.475E-02    0.729E-02
DAV:   4    -0.125683534704E+04    0.72590E-04   -0.14191E-04 27408   0.307E-02
  37 F= -.12568353E+04 E0= -.12568353E+04  d E =-.327832E-02  mag=    40.0000
       N       E                     dE             d eps       ncg     rms          rms(c)
DAV:   1    -0.125683666492E+04   -0.12453E-02   -0.94446E-01 43020   0.135E+00    0.260E-01
DAV:   2    -0.125683846429E+04   -0.17994E-02   -0.25212E-02 49704   0.232E-01    0.157E-01
DAV:   3    -0.125683845225E+04    0.12037E-04   -0.15303E-03 58080   0.687E-02    0.889E-02
DAV:   4    -0.125683837743E+04    0.74822E-04   -0.19235E-04 31572   0.323E-02
  38 F= -.12568384E+04 E0= -.12568384E+04  d E =-.303039E-02  mag=    40.0000
       N       E                     dE             d eps       ncg     rms          rms(c)
DAV:   1    -0.125681909461E+04    0.19358E-01   -0.12280E+01 43008   0.485E+00    0.762E-01
DAV:   2    -0.125684839193E+04   -0.29297E-01   -0.32048E-01 46320   0.801E-01    0.427E-01
DAV:   3    -0.125684844291E+04   -0.50981E-04   -0.13236E-02 61488   0.174E-01    0.274E-01
DAV:   4    -0.125684762820E+04    0.81471E-03   -0.30869E-03 60780   0.105E-01    0.171E-01
DAV:   5    -0.125684742986E+04    0.19834E-03   -0.15737E-03 53052   0.727E-02    0.897E-02
DAV:   6    -0.125684741673E+04    0.13126E-04   -0.52273E-04 46848   0.386E-02
  39 F= -.12568474E+04 E0= -.12568474E+04  d E =-.903931E-02  mag=    40.0000
       N       E                     dE             d eps       ncg     rms          rms(c)
DAV:   1    -0.125683214326E+04    0.15287E-01   -0.55136E+00 43008   0.327E+00    0.638E-01
DAV:   2    -0.125684286321E+04   -0.10720E-01   -0.15648E-01 49656   0.576E-01    0.387E-01
DAV:   3    -0.125684236418E+04    0.49903E-03   -0.77643E-03 59592   0.173E-01    0.230E-01
DAV:   4    -0.125684199604E+04    0.36814E-03   -0.21703E-03 62112   0.820E-02    0.146E-01
DAV:   5    -0.125684186921E+04    0.12683E-03   -0.62699E-04 48972   0.445E-02    0.809E-02
DAV:   6    -0.125684184503E+04    0.24180E-04   -0.18122E-04 29784   0.275E-02
  40 F= -.12568418E+04 E0= -.12568418E+04  d E =0.557171E-02  mag=    40.0000
       N       E                     dE             d eps       ncg     rms          rms(c)
DAV:   1    -0.125683685220E+04    0.50170E-02   -0.42525E+00 43008   0.284E+00    0.373E-01
DAV:   2    -0.125684764437E+04   -0.10792E-01   -0.10872E-01 46680   0.460E-01    0.229E-01
DAV:   3    -0.125684781215E+04   -0.16778E-03   -0.47612E-03 62232   0.911E-02    0.147E-01
DAV:   4    -0.125684754723E+04    0.26491E-03   -0.76627E-04 52032   0.541E-02    0.943E-02
DAV:   5    -0.125684748426E+04    0.62976E-04   -0.79723E-04 48936   0.533E-02
  41 F= -.12568475E+04 E0= -.12568475E+04  d E =-.563923E-02  mag=    40.0000
       N       E                     dE             d eps       ncg     rms          rms(c)
DAV:   1    -0.125684838247E+04   -0.83523E-03   -0.28298E-02 43788   0.251E-01    0.189E-01
DAV:   2    -0.125684799456E+04    0.38791E-03   -0.40356E-03 62388   0.116E-01    0.160E-01
DAV:   3    -0.125684789557E+04    0.98988E-04   -0.94452E-04 56244   0.550E-02
  42 F= -.12568479E+04 E0= -.12568479E+04  d E =-.411312E-03  mag=    40.0000
       N       E                     dE             d eps       ncg     rms          rms(c)
DAV:   1    -0.125684868690E+04   -0.69234E-03   -0.21406E-01 43152   0.645E-01    0.138E-01
DAV:   2    -0.125684905069E+04   -0.36379E-03   -0.60231E-03 49356   0.115E-01    0.952E-02
DAV:   3    -0.125684903317E+04    0.17517E-04   -0.24386E-04 35148   0.283E-02
  43 F= -.12568490E+04 E0= -.12568490E+04  d E =-.113760E-02  mag=    40.0000
       N       E                     dE             d eps       ncg     rms          rms(c)
DAV:   1    -0.125684950322E+04   -0.45253E-03   -0.44080E-02 43224   0.287E-01    0.540E-02
DAV:   2    -0.125684959812E+04   -0.94900E-04   -0.12219E-03 50220   0.509E-02    0.460E-02
DAV:   3    -0.125684958974E+04    0.83799E-05   -0.56563E-05 24240   0.144E-02
  44 F= -.12568496E+04 E0= -.12568496E+04  d E =-.556570E-03  mag=    40.0000
       N       E                     dE             d eps       ncg     rms          rms(c)
DAV:   1    -0.125684982684E+04   -0.22872E-03   -0.37750E-02 43224   0.271E-01    0.675E-02
DAV:   2    -0.125684990684E+04   -0.80003E-04   -0.13914E-03 54912   0.698E-02    0.779E-02
DAV:   3    -0.125684989796E+04    0.88809E-05   -0.14990E-04 28356   0.221E-02
  45 F= -.12568499E+04 E0= -.12568499E+04  d E =-.308219E-03  mag=    40.0000
       N       E                     dE             d eps       ncg     rms          rms(c)
DAV:   1    -0.125685054805E+04   -0.64120E-03   -0.32926E-01 43080   0.790E-01    0.130E-01
DAV:   2    -0.125685136585E+04   -0.81781E-03   -0.91288E-03 51108   0.143E-01    0.112E-01
DAV:   3    -0.125685137374E+04   -0.78911E-05   -0.65208E-04 50796   0.393E-02
  46 F= -.12568514E+04 E0= -.12568514E+04  d E =-.147578E-02  mag=    40.0000
       N       E                     dE             d eps       ncg     rms          rms(c)
DAV:   1    -0.125685200734E+04   -0.64149E-03   -0.16032E-01 43152   0.550E-01    0.941E-02
DAV:   2    -0.125685239232E+04   -0.38498E-03   -0.43840E-03 51828   0.991E-02    0.850E-02
DAV:   3    -0.125685237172E+04    0.20604E-04   -0.26034E-04 34884   0.292E-02
  47 F= -.12568524E+04 E0= -.12568524E+04  d E =-.997978E-03  mag=    40.0000
       N       E                     dE             d eps       ncg     rms          rms(c)
DAV:   1    -0.125685298374E+04   -0.59142E-03   -0.32606E-01 43140   0.786E-01    0.117E-01
DAV:   2    -0.125685376832E+04   -0.78458E-03   -0.81352E-03 47088   0.127E-01    0.703E-02
DAV:   3    -0.125685376630E+04    0.20214E-05   -0.31488E-04 40500   0.257E-02
  48 F= -.12568538E+04 E0= -.12568538E+04  d E =-.139458E-02  mag=    40.0000
       N       E                     dE             d eps       ncg     rms          rms(c)
DAV:   1    -0.125685387771E+04   -0.10939E-03   -0.10180E+00 43008   0.138E+00    0.192E-01
DAV:   2    -0.125685622308E+04   -0.23454E-02   -0.25054E-02 47004   0.219E-01    0.120E-01
DAV:   3    -0.125685622308E+04    0.59517E-08   -0.11235E-03 56628   0.483E-02    0.799E-02
DAV:   4    -0.125685616031E+04    0.62767E-04   -0.11441E-04 26508   0.251E-02
  49 F= -.12568562E+04 E0= -.12568562E+04  d E =-.239401E-02  mag=    40.0000
       N       E                     dE             d eps       ncg     rms          rms(c)
DAV:   1    -0.125685651876E+04   -0.29569E-03   -0.65679E-01 43116   0.111E+00    0.157E-01
DAV:   2    -0.125685800864E+04   -0.14899E-02   -0.15830E-02 47328   0.176E-01    0.919E-02
DAV:   3    -0.125685805138E+04   -0.42745E-04   -0.91558E-04 54996   0.396E-02
  50 F= -.12568581E+04 E0= -.12568581E+04  d E =-.189107E-02  mag=    40.0000
       N       E                     dE             d eps       ncg     rms          rms(c)
DAV:   1    -0.125685850323E+04   -0.49459E-03   -0.12392E-01 43152   0.486E-01    0.948E-02
DAV:   2    -0.125685877949E+04   -0.27626E-03   -0.36033E-03 52908   0.982E-02    0.104E-01
DAV:   3    -0.125685875113E+04    0.28365E-04   -0.18631E-04 30468   0.280E-02
  51 F= -.12568588E+04 E0= -.12568588E+04  d E =-.699741E-03  mag=    40.0000
       N       E                     dE             d eps       ncg     rms          rms(c)
DAV:   1    -0.125685929833E+04   -0.51884E-03   -0.79800E-02 43152   0.387E-01    0.887E-02
DAV:   2    -0.125685943970E+04   -0.14137E-03   -0.23867E-03 55596   0.744E-02    0.735E-02
DAV:   3    -0.125685941471E+04    0.24987E-04   -0.16482E-04 28800   0.273E-02
  52 F= -.12568594E+04 E0= -.12568594E+04  d E =-.663588E-03  mag=    40.0000
       N       E                     dE             d eps       ncg     rms          rms(c)
DAV:   1    -0.125685991577E+04   -0.47607E-03   -0.21032E-01 43128   0.629E-01    0.946E-02
DAV:   2    -0.125686041991E+04   -0.50414E-03   -0.51515E-03 47844   0.101E-01    0.588E-02
DAV:   3    -0.125686042142E+04   -0.15046E-05   -0.21582E-04 35028   0.214E-02
  53 F= -.12568604E+04 E0= -.12568604E+04  d E =-.100670E-02  mag=    40.0000
       N       E                     dE             d eps       ncg     rms          rms(c)
DAV:   1    -0.125685964391E+04    0.77600E-03   -0.14463E+00 43008   0.165E+00    0.233E-01
DAV:   2    -0.125686298952E+04   -0.33456E-02   -0.36373E-02 47268   0.265E-01    0.144E-01
DAV:   3    -0.125686299453E+04   -0.50097E-05   -0.16892E-03 59136   0.587E-02    0.926E-02
DAV:   4    -0.125686290093E+04    0.93598E-04   -0.29983E-04 38244   0.335E-02
  54 F= -.12568629E+04 E0= -.12568629E+04  d E =-.247951E-02  mag=    40.0000
       N       E                     dE             d eps       ncg     rms          rms(c)
DAV:   1    -0.125683330860E+04    0.29686E-01   -0.15181E+01 43008   0.534E+00    0.733E-01
DAV:   2    -0.125687060740E+04   -0.37299E-01   -0.37851E-01 46644   0.849E-01    0.427E-01
DAV:   3    -0.125687135590E+04   -0.74849E-03   -0.17365E-02 62160   0.175E-01    0.281E-01
DAV:   4    -0.125687062971E+04    0.72618E-03   -0.19258E-03 60696   0.791E-02    0.183E-01
DAV:   5    -0.125687027385E+04    0.35586E-03   -0.20500E-03 51744   0.927E-02    0.728E-02
DAV:   6    -0.125687032385E+04   -0.49999E-04   -0.92649E-04 48072   0.482E-02
  55 F= -.12568703E+04 E0= -.12568703E+04  d E =-.742292E-02  mag=    40.0000
       N       E                     dE             d eps       ncg     rms          rms(c)
DAV:   1    -0.125685587327E+04    0.14401E-01   -0.74921E+00 43008   0.375E+00    0.536E-01
DAV:   2    -0.125687472712E+04   -0.18854E-01   -0.19058E-01 46776   0.604E-01    0.292E-01
DAV:   3    -0.125687525880E+04   -0.53168E-03   -0.96145E-03 62532   0.131E-01    0.190E-01
DAV:   4    -0.125687489842E+04    0.36039E-03   -0.12399E-03 57468   0.619E-02    0.122E-01
DAV:   5    -0.125687476896E+04    0.12946E-03   -0.97939E-04 50544   0.603E-02    0.547E-02
DAV:   6    -0.125687478273E+04   -0.13773E-04   -0.30636E-04 35820   0.303E-02
  56 F= -.12568748E+04 E0= -.12568748E+04  d E =-.445888E-02  mag=    40.0000
       N       E                     dE             d eps       ncg     rms          rms(c)
DAV:   1    -0.125686004720E+04    0.14722E-01   -0.74103E+00 43008   0.374E+00    0.505E-01
DAV:   2    -0.125687876419E+04   -0.18717E-01   -0.18871E-01 46356   0.599E-01    0.276E-01
DAV:   3    -0.125687912289E+04   -0.35870E-03   -0.81171E-03 61920   0.117E-01    0.181E-01
DAV:   4    -0.125687877893E+04    0.34396E-03   -0.10975E-03 56544   0.601E-02    0.115E-01
DAV:   5    -0.125687865520E+04    0.12373E-03   -0.84808E-04 49356   0.592E-02    0.486E-02
DAV:   6    -0.125687867149E+04   -0.16290E-04   -0.33907E-04 37704   0.304E-02
  57 F= -.12568787E+04 E0= -.12568787E+04  d E =-.388875E-02  mag=    40.0000
       N       E                     dE             d eps       ncg     rms          rms(c)
DAV:   1    -0.125687883977E+04   -0.18457E-03   -0.52864E-02 43440   0.320E-01    0.687E-02
DAV:   2    -0.125687896639E+04   -0.12663E-03   -0.17818E-03 55044   0.665E-02    0.641E-02
DAV:   3    -0.125687895628E+04    0.10113E-04   -0.87815E-05 25056   0.190E-02
  58 F= -.12568790E+04 E0= -.12568790E+04  d E =-.284792E-03  mag=    40.0000
       N       E                     dE             d eps       ncg     rms          rms(c)
DAV:   1    -0.125687907195E+04   -0.10556E-03   -0.99669E-03 43440   0.137E-01    0.278E-02
DAV:   2    -0.125687909391E+04   -0.21961E-04   -0.23760E-04 29256   0.231E-02
  59 F= -.12568791E+04 E0= -.12568791E+04  d E =-.137633E-03  mag=    40.0000
       N       E                     dE             d eps       ncg     rms          rms(c)
DAV:   1    -0.125687944044E+04   -0.36849E-03   -0.11275E-01 43212   0.474E-01    0.151E-01
DAV:   2    -0.125687948341E+04   -0.42968E-04   -0.39029E-03 54072   0.957E-02    0.880E-02
DAV:   3    -0.125687945318E+04    0.30228E-04   -0.27375E-04 37920   0.388E-02
  60 F= -.12568795E+04 E0= -.12568795E+04  d E =-.359270E-03  mag=    40.0000
       N       E                     dE             d eps       ncg     rms          rms(c)
DAV:   1    -0.125687957999E+04   -0.96581E-04   -0.25089E-01 43128   0.691E-01    0.120E-01
DAV:   2    -0.125688007942E+04   -0.49943E-03   -0.66811E-03 50436   0.118E-01    0.798E-02
DAV:   3    -0.125688005193E+04    0.27488E-04   -0.28541E-04 37608   0.322E-02
  61 F= -.12568801E+04 E0= -.12568801E+04  d E =-.598746E-03  mag=    40.0000
       N       E                     dE             d eps       ncg     rms          rms(c)
DAV:   1    -0.125687995138E+04    0.12804E-03   -0.86458E-02 43188   0.418E-01    0.176E-01
DAV:   2    -0.125687985082E+04    0.10056E-03   -0.38428E-03 55308   0.100E-01    0.107E-01
DAV:   3    -0.125687982346E+04    0.27362E-04   -0.43776E-04 44112   0.447E-02
  62 F= -.12568798E+04 E0= -.12568798E+04  d E =0.228467E-03  mag=    40.0000
       N       E                     dE             d eps       ncg     rms          rms(c)
DAV:   1    -0.125687979069E+04    0.60133E-04   -0.10975E-02 43200   0.143E-01    0.547E-02
DAV:   2    -0.125687982871E+04   -0.38022E-04   -0.86292E-04 55224   0.483E-02
  63 F= -.12568798E+04 E0= -.12568798E+04  d E =-.525052E-05  mag=    40.0000
       N       E                     dE             d eps       ncg     rms          rms(c)
DAV:   1    -0.125687992105E+04   -0.13036E-03   -0.14877E-01 43128   0.529E-01    0.937E-02
DAV:   2    -0.125688028977E+04   -0.36872E-03   -0.39684E-03 50340   0.912E-02    0.642E-02
DAV:   3    -0.125688029291E+04   -0.31378E-05   -0.24114E-04 32484   0.268E-02
  64 F= -.12568803E+04 E0= -.12568803E+04  d E =-.464196E-03  mag=    40.0000
       N       E                     dE             d eps       ncg     rms          rms(c)
DAV:   1    -0.125688048446E+04   -0.19469E-03   -0.79416E-02 43128   0.387E-01    0.560E-02
DAV:   2    -0.125688067557E+04   -0.19111E-03   -0.21893E-03 52776   0.707E-02    0.566E-02
DAV:   3    -0.125688066822E+04    0.73579E-05   -0.11141E-04 25248   0.198E-02
  65 F= -.12568807E+04 E0= -.12568807E+04  d E =-.375309E-03  mag=    40.0000
       N       E                     dE             d eps       ncg     rms          rms(c)
DAV:   1    -0.125688071182E+04   -0.36242E-04   -0.40445E-01 43008   0.876E-01    0.147E-01
DAV:   2    -0.125688152757E+04   -0.81576E-03   -0.10538E-02 48900   0.145E-01    0.865E-02
DAV:   3    -0.125688150949E+04    0.18087E-04   -0.51229E-04 46572   0.393E-02
  66 F= -.12568815E+04 E0= -.12568815E+04  d E =-.841270E-03  mag=    40.0000
       N       E                     dE             d eps       ncg     rms          rms(c)
DAV:   1    -0.125688126489E+04    0.26269E-03   -0.25240E-02 43176   0.221E-01    0.558E-02
DAV:   2    -0.125688134080E+04   -0.75910E-04   -0.10264E-03 50088   0.478E-02    0.442E-02
DAV:   3    -0.125688133550E+04    0.52977E-05   -0.43870E-05 23160   0.139E-02
  67 F= -.12568813E+04 E0= -.12568813E+04  d E =0.173988E-03  mag=    40.0000
