       N       E                     dE             d eps       ncg     rms          rms(c)
DAV:   1     0.110867881282E+05    0.11087E+05   -0.39373E+05 43032   0.125E+03
DAV:   2     0.103741862647E+04   -0.10049E+05   -0.92541E+04 44352   0.350E+02
DAV:   3    -0.142609480586E+04   -0.24635E+04   -0.23826E+04 48684   0.180E+02
DAV:   4    -0.164922646275E+04   -0.22313E+03   -0.21966E+03 64944   0.606E+01
DAV:   5    -0.165775462883E+04   -0.85282E+01   -0.84091E+01 67608   0.137E+01
DAV:   6    -0.165815033886E+04   -0.39571E+00   -0.39209E+00 68124   0.251E+00
DAV:   7    -0.165817430823E+04   -0.23969E-01   -0.23856E-01 68292   0.621E-01
DAV:   8    -0.165817606057E+04   -0.17523E-02   -0.17480E-02 63468   0.143E-01
DAV:   9    -0.165817620101E+04   -0.14044E-03   -0.14022E-03 44304   0.418E-02
DAV:  10    -0.165817621346E+04   -0.12449E-04   -0.12414E-04 36288   0.158E-02
DAV:  11    -0.165817621589E+04   -0.24327E-05   -0.24183E-05 33648   0.995E-03
DAV:  12    -0.165817621716E+04   -0.12659E-05   -0.12574E-05 32676   0.715E-03    0.162E+02
DAV:  13    -0.123984576452E+04    0.41833E+03   -0.25364E+03 63708   0.819E+01    0.125E+02
DAV:  14    -0.137613055559E+04   -0.13628E+03   -0.26224E+03 71028   0.118E+02    0.177E+02
DAV:  15    -0.130743089481E+04    0.68700E+02   -0.94282E+02 68976   0.847E+01    0.809E+01
DAV:  16    -0.128041028300E+04    0.27021E+02   -0.30751E+02 67572   0.688E+01    0.124E+02
DAV:  17    -0.125353098507E+04    0.26879E+02   -0.49076E+02 63792   0.438E+01    0.559E+01
DAV:  18    -0.123779666041E+04    0.15734E+02   -0.21318E+02 68652   0.368E+01    0.324E+01
DAV:  19    -0.124420941559E+04   -0.64128E+01   -0.10221E+02 65148   0.293E+01    0.252E+01
DAV:  20    -0.124183248481E+04    0.23769E+01   -0.22823E+01 65628   0.239E+01    0.299E+01
DAV:  21    -0.124384205829E+04   -0.20096E+01   -0.16995E+01 61548   0.612E+00    0.320E+01
DAV:  22    -0.124439048454E+04   -0.54843E+00   -0.15209E+00 61776   0.266E+00    0.295E+01
DAV:  23    -0.124785395176E+04   -0.34635E+01   -0.12565E+01 68004   0.133E+01    0.307E+01
DAV:  24    -0.124772287963E+04    0.13107E+00   -0.46708E+00 67968   0.900E+00    0.274E+01
DAV:  25    -0.124364222613E+04    0.40807E+01   -0.85847E+00 69972   0.920E+00    0.243E+01
DAV:  26    -0.124388886908E+04   -0.24664E+00   -0.55188E+00 72588   0.720E+00    0.214E+01
DAV:  27    -0.124433382652E+04   -0.44496E+00   -0.38224E+00 68712   0.605E+00    0.185E+01
DAV:  28    -0.124542196166E+04   -0.10881E+01   -0.42110E+00 64332   0.701E+00    0.202E+01
DAV:  29    -0.124626357858E+04   -0.84162E+00   -0.10096E+01 67152   0.635E+00    0.219E+01
DAV:  30    -0.124593046362E+04    0.33311E+00   -0.10873E+01 65844   0.469E+00    0.167E+01
DAV:  31    -0.124604169535E+04   -0.11123E+00   -0.36285E+00 66336   0.405E+00    0.179E+01
DAV:  32    -0.124543440487E+04    0.60729E+00   -0.88523E-01 62640   0.196E+00    0.205E+01
DAV:  33    -0.124544693746E+04   -0.12533E-01   -0.15806E-01 56232   0.639E-01    0.204E+01
DAV:  34    -0.124522496703E+04    0.22197E+00   -0.23287E-01 66504   0.120E+00    0.254E+01
DAV:  35    -0.124550289902E+04   -0.27793E+00   -0.14880E+00 66948   0.290E+00    0.273E+01
DAV:  36    -0.124614731608E+04   -0.64442E+00   -0.10763E+00 68520   0.283E+00    0.246E+01
DAV:  37    -0.124696913456E+04   -0.82182E+00   -0.10141E+00 65748   0.203E+00    0.241E+01
DAV:  38    -0.124818697724E+04   -0.12178E+01   -0.51905E-01 65460   0.177E+00    0.240E+01
DAV:  39    -0.124810414227E+04    0.82835E-01   -0.16020E-01 62964   0.105E+00    0.236E+01
DAV:  40    -0.124822545014E+04   -0.12131E+00   -0.68351E-01 69444   0.279E+00    0.231E+01
DAV:  41    -0.124872762784E+04   -0.50218E+00   -0.82170E-01 67404   0.333E+00    0.273E+01
DAV:  42    -0.124861355210E+04    0.11408E+00   -0.36633E-01 53064   0.920E-01    0.277E+01
DAV:  43    -0.124857527350E+04    0.38279E-01   -0.20141E-02 70056   0.195E-01    0.276E+01
DAV:  44    -0.124851708949E+04    0.58184E-01   -0.28786E-03 61404   0.180E-01    0.275E+01
DAV:  45    -0.124841862806E+04    0.98461E-01   -0.79510E-03 73776   0.284E-01    0.273E+01
DAV:  46    -0.124833715740E+04    0.81471E-01   -0.10833E-02 69696   0.517E-01    0.272E+01
DAV:  47    -0.124831715630E+04    0.20001E-01   -0.13439E-02 61272   0.170E-01    0.272E+01
DAV:  48    -0.124835855126E+04   -0.41395E-01   -0.65730E-03 67140   0.237E-01    0.272E+01
DAV:  49    -0.124907132438E+04   -0.71277E+00   -0.43315E-01 68988   0.223E+00    0.272E+01
DAV:  50    -0.124959955315E+04   -0.52823E+00   -0.80065E-01 66720   0.211E+00    0.266E+01
DAV:  51    -0.124954231358E+04    0.57240E-01   -0.26835E-01 62652   0.896E-01    0.262E+01
DAV:  52    -0.124956334553E+04   -0.21032E-01   -0.33392E-02 57996   0.299E-01    0.261E+01
DAV:  53    -0.124968733184E+04   -0.12399E+00   -0.82687E-03 68796   0.353E-01    0.263E+01
DAV:  54    -0.125003801069E+04   -0.35068E+00   -0.11359E-01 70068   0.106E+00    0.275E+01
DAV:  55    -0.125108611597E+04   -0.10481E+01   -0.78591E-01 72744   0.301E+00    0.312E+01
DAV:  56    -0.125168791317E+04   -0.60180E+00   -0.12152E+00 64680   0.276E+00    0.334E+01
DAV:  57    -0.125200206753E+04   -0.31415E+00   -0.53925E-01 63648   0.145E+00    0.354E+01
DAV:  58    -0.125214947552E+04   -0.14741E+00   -0.43576E-01 68124   0.158E+00    0.357E+01
DAV:  59    -0.125245838794E+04   -0.30891E+00   -0.46878E-01 65916   0.199E+00    0.381E+01
DAV:  60    -0.125239644041E+04    0.61948E-01   -0.25042E-01 66276   0.159E+00    0.385E+01
DAV:  61    -0.125232438954E+04    0.72051E-01   -0.13168E-01 64584   0.783E-01    0.387E+01
DAV:  62    -0.125199239341E+04    0.33200E+00   -0.69746E-02 72612   0.112E+00    0.381E+01
DAV:  63    -0.125157556607E+04    0.41683E+00   -0.42799E-01 69108   0.237E+00    0.390E+01
DAV:  64    -0.125143142042E+04    0.14415E+00   -0.28721E-01 62316   0.781E-01    0.384E+01
DAV:  65    -0.125142253434E+04    0.88861E-02   -0.19983E-02 56940   0.236E-01    0.383E+01
DAV:  66    -0.125142002502E+04    0.25093E-02   -0.17846E-03 63720   0.716E-02    0.384E+01
DAV:  67    -0.125141372860E+04    0.62964E-02   -0.19844E-04 35736   0.383E-02    0.383E+01
DAV:  68    -0.125084066190E+04    0.57307E+00   -0.71198E-01 73404   0.195E+00    0.356E+01
DAV:  69    -0.125077866487E+04    0.61997E-01   -0.17942E-01 62724   0.957E-01    0.353E+01
DAV:  70    -0.125064468635E+04    0.13398E+00   -0.38210E-01 72336   0.136E+00    0.345E+01
DAV:  71    -0.125088777554E+04   -0.24309E+00   -0.50205E-01 70560   0.167E+00    0.358E+01
DAV:  72    -0.125110758812E+04   -0.21981E+00   -0.21294E-01 60888   0.846E-01    0.370E+01
DAV:  73    -0.125135210733E+04   -0.24452E+00   -0.24010E-01 70212   0.166E+00    0.397E+01
DAV:  74    -0.125144057996E+04   -0.88473E-01   -0.22616E-01 68496   0.145E+00    0.383E+01
DAV:  75    -0.125119346420E+04    0.24712E+00   -0.14448E-01 66396   0.922E-01    0.361E+01
DAV:  76    -0.125096083936E+04    0.23262E+00   -0.82870E-02 65772   0.786E-01    0.348E+01
DAV:  77    -0.125062874192E+04    0.33210E+00   -0.14114E-01 63456   0.634E-01    0.327E+01
DAV:  78    -0.124866869873E+04    0.19600E+01   -0.18417E+01 63108   0.716E+00    0.659E+00
DAV:  79    -0.124901932104E+04   -0.35062E+00   -0.48741E+00 55836   0.313E+00    0.639E+00
DAV:  80    -0.124892249462E+04    0.96826E-01   -0.71776E-01 65556   0.145E+00    0.497E+00
DAV:  81    -0.124888806226E+04    0.34432E-01   -0.41479E-01 62304   0.946E-01    0.499E+00
DAV:  82    -0.124888770996E+04    0.35230E-03   -0.66394E-02 60828   0.505E-01    0.462E+00
DAV:  83    -0.124888150914E+04    0.62008E-02   -0.36392E-01 70932   0.218E+00    0.431E+00
DAV:  84    -0.124890414974E+04   -0.22641E-01   -0.29953E-01 53160   0.715E-01    0.418E+00
DAV:  85    -0.124890449238E+04   -0.34264E-03   -0.18268E-01 70644   0.490E-01    0.305E+00
DAV:  86    -0.124889368885E+04    0.10804E-01   -0.46741E-02 62844   0.373E-01    0.269E+00
DAV:  87    -0.124889280784E+04    0.88101E-03   -0.28343E-02 66036   0.293E-01    0.264E+00
DAV:  88    -0.124888357546E+04    0.92324E-02   -0.34312E-01 75024   0.101E+00    0.320E+00
DAV:  89    -0.124887765476E+04    0.59207E-02   -0.10799E-01 60624   0.461E-01    0.183E+00
DAV:  90    -0.124887849472E+04   -0.83996E-03   -0.62449E-02 64380   0.334E-01    0.161E+00
DAV:  91    -0.124887645091E+04    0.20438E-02   -0.14949E-02 61680   0.183E-01    0.144E+00
DAV:  92    -0.124887489229E+04    0.15586E-02   -0.68366E-03 63636   0.139E-01    0.119E+00
DAV:  93    -0.124887308717E+04    0.18051E-02   -0.63167E-03 60972   0.128E-01    0.962E-01
DAV:  94    -0.124887262231E+04    0.46487E-03   -0.83802E-03 64656   0.191E-01    0.916E-01
DAV:  95    -0.124887001867E+04    0.26036E-02   -0.62691E-03 61620   0.133E-01    0.782E-01
DAV:  96    -0.124886968968E+04    0.32899E-03   -0.60401E-03 61776   0.128E-01    0.697E-01
DAV:  97    -0.124886993995E+04   -0.25027E-03   -0.61408E-03 58068   0.113E-01    0.510E-01
DAV:  98    -0.124887072223E+04   -0.78228E-03   -0.81914E-03 58524   0.116E-01    0.405E-01
DAV:  99    -0.124887141136E+04   -0.68913E-03   -0.46746E-03 57684   0.118E-01    0.402E-01
DAV: 100    -0.124887146193E+04   -0.50573E-04   -0.20422E-03 58344   0.966E-02
   1 F= -.12488715E+04 E0= -.12487692E+04  d E =-.124887E+04  mag=    39.9068
       N       E                     dE             d eps       ncg     rms          rms(c)
DAV:   1    -0.125013091031E+04   -0.12595E+01   -0.79396E+02 43008   0.398E+01    0.156E+01
DAV:   2    -0.125370195027E+04   -0.35710E+01   -0.49539E+01 60852   0.132E+01    0.204E+01
DAV:   3    -0.125340709870E+04    0.29485E+00   -0.68238E+00 60636   0.571E+00    0.132E+01
DAV:   4    -0.125301384625E+04    0.39325E+00   -0.12320E+00 61560   0.300E+00    0.999E+00
DAV:   5    -0.125317503391E+04   -0.16119E+00   -0.18196E+00 67092   0.359E+00    0.499E+00
DAV:   6    -0.125335829270E+04   -0.18326E+00   -0.11433E+00 55392   0.154E+00    0.366E+00
DAV:   7    -0.125339566493E+04   -0.37372E-01   -0.19038E-01 59988   0.732E-01    0.163E+00
DAV:   8    -0.125340568612E+04   -0.10021E-01   -0.84322E-02 60084   0.636E-01    0.131E+00
DAV:   9    -0.125341607286E+04   -0.10387E-01   -0.24155E-02 59040   0.309E-01    0.972E-01
DAV:  10    -0.125342075924E+04   -0.46864E-02   -0.12966E-02 60168   0.255E-01    0.609E-01
DAV:  11    -0.125342425756E+04   -0.34983E-02   -0.88037E-03 61632   0.164E-01    0.374E-01
DAV:  12    -0.125342634230E+04   -0.20847E-02   -0.36873E-03 64680   0.121E-01    0.261E-01
DAV:  13    -0.125342899089E+04   -0.26486E-02   -0.29885E-03 61884   0.801E-02    0.192E-01
DAV:  14    -0.125342976539E+04   -0.77449E-03   -0.12533E-03 58428   0.638E-02    0.150E-01
DAV:  15    -0.125342995311E+04   -0.18772E-03   -0.61504E-04 46488   0.366E-02    0.107E-01
DAV:  16    -0.125343007871E+04   -0.12560E-03   -0.20775E-04 34692   0.366E-02    0.522E-02
DAV:  17    -0.125343011983E+04   -0.41116E-04   -0.28279E-04 31500   0.295E-02
   2 F= -.12534301E+04 E0= -.12534301E+04  d E =-.455866E+01  mag=    39.9634
       N       E                     dE             d eps       ncg     rms          rms(c)
DAV:   1    -0.125513460990E+04   -0.17045E+01   -0.15025E+02 43536   0.177E+01    0.854E+00
DAV:   2    -0.125495654631E+04    0.17806E+00   -0.98564E+00 60108   0.593E+00    0.922E+00
DAV:   3    -0.125472597176E+04    0.23057E+00   -0.15313E+00 59280   0.241E+00    0.537E+00
DAV:   4    -0.125468213374E+04    0.43838E-01   -0.38824E-01 60036   0.937E-01    0.366E+00
DAV:   5    -0.125467114953E+04    0.10984E-01   -0.99805E-02 61344   0.644E-01    0.171E+00
DAV:   6    -0.125466451846E+04    0.66311E-02   -0.73123E-02 64296   0.496E-01    0.596E-01
DAV:   7    -0.125466401090E+04    0.50756E-03   -0.18392E-02 62808   0.220E-01    0.375E-01
DAV:   8    -0.125466404331E+04   -0.32410E-04   -0.43051E-03 63876   0.107E-01    0.259E-01
DAV:   9    -0.125466391717E+04    0.12614E-03   -0.10919E-03 59664   0.678E-02    0.162E-01
DAV:  10    -0.125466395772E+04   -0.40546E-04   -0.13112E-03 62424   0.608E-02    0.667E-02
DAV:  11    -0.125466393393E+04    0.23791E-04   -0.18626E-04 27756   0.330E-02
   3 F= -.12546639E+04 E0= -.12546639E+04  d E =-.123381E+01  mag=    39.9762
       N       E                     dE             d eps       ncg     rms          rms(c)
DAV:   1    -0.125474954837E+04   -0.85591E-01   -0.22836E+02 43008   0.212E+01    0.627E+00
DAV:   2    -0.125532012692E+04   -0.57058E+00   -0.98876E+00 60528   0.698E+00    0.825E+00
DAV:   3    -0.125530060016E+04    0.19527E-01   -0.16257E+00 58296   0.213E+00    0.506E+00
DAV:   4    -0.125522289361E+04    0.77707E-01   -0.25697E-01 62052   0.852E-01    0.395E+00
DAV:   5    -0.125517841027E+04    0.44483E-01   -0.15267E-01 57876   0.994E-01    0.193E+00
DAV:   6    -0.125517577596E+04    0.26343E-02   -0.21440E-01 61944   0.859E-01    0.933E-01
DAV:   7    -0.125517464269E+04    0.11333E-02   -0.10115E-01 56076   0.486E-01    0.684E-01
DAV:   8    -0.125517500884E+04   -0.36615E-03   -0.11801E-02 61944   0.213E-01    0.359E-01
DAV:   9    -0.125517404051E+04    0.96833E-03   -0.46940E-03 63228   0.145E-01    0.211E-01
DAV:  10    -0.125517390888E+04    0.13163E-03   -0.28093E-03 58548   0.105E-01    0.171E-01
DAV:  11    -0.125517385850E+04    0.50382E-04   -0.11842E-03 59736   0.528E-02    0.119E-01
DAV:  12    -0.125517378677E+04    0.71731E-04   -0.27964E-04 30540   0.292E-02
   4 F= -.12551738E+04 E0= -.12551738E+04  d E =-.509853E+00  mag=    39.9846
       N       E                     dE             d eps       ncg     rms          rms(c)
DAV:   1    -0.125551078165E+04   -0.33692E+00   -0.24361E+01 43092   0.685E+00    0.265E+00
DAV:   2    -0.125556061291E+04   -0.49831E-01   -0.14217E+00 58284   0.237E+00    0.369E+00
DAV:   3    -0.125555500919E+04    0.56037E-02   -0.24939E-01 55452   0.737E-01    0.291E+00
DAV:   4    -0.125553519816E+04    0.19811E-01   -0.11950E-01 63288   0.546E-01    0.240E+00
DAV:   5    -0.125553344249E+04    0.17557E-02   -0.94701E-02 55560   0.516E-01    0.143E+00
DAV:   6    -0.125552884164E+04    0.46008E-02   -0.46847E-02 63144   0.404E-01    0.106E+00
DAV:   7    -0.125552289044E+04    0.59512E-02   -0.39049E-02 55008   0.290E-01    0.633E-01
DAV:   8    -0.125552298299E+04   -0.92543E-04   -0.67347E-03 63516   0.157E-01    0.381E-01
DAV:   9    -0.125552216272E+04    0.82027E-03   -0.18272E-03 60216   0.734E-02    0.267E-01
DAV:  10    -0.125552191108E+04    0.25163E-03   -0.86387E-04 54684   0.440E-02    0.159E-01
DAV:  11    -0.125552180694E+04    0.10414E-03   -0.24728E-04 31104   0.256E-02    0.116E-01
DAV:  12    -0.125552177536E+04    0.31583E-04   -0.12934E-04 24828   0.203E-02
   5 F= -.12555218E+04 E0= -.12555218E+04  d E =-.347989E+00  mag=    39.9900
       N       E                     dE             d eps       ncg     rms          rms(c)
DAV:   1    -0.125557380583E+04   -0.51999E-01   -0.61257E+01 43104   0.110E+01    0.214E+00
DAV:   2    -0.125571665091E+04   -0.14285E+00   -0.18222E+00 55476   0.222E+00    0.185E+00
DAV:   3    -0.125571830865E+04   -0.16577E-02   -0.14952E-01 63072   0.644E-01    0.119E+00
DAV:   4    -0.125571085510E+04    0.74535E-02   -0.20286E-02 64272   0.252E-01    0.743E-01
DAV:   5    -0.125570591616E+04    0.49389E-02   -0.14203E-02 55320   0.255E-01    0.327E-01
DAV:   6    -0.125570627532E+04   -0.35916E-03   -0.11600E-02 60012   0.177E-01    0.179E-01
DAV:   7    -0.125570622215E+04    0.53177E-04   -0.33106E-03 59604   0.923E-02    0.122E-01
DAV:   8    -0.125570622050E+04    0.16435E-05   -0.56252E-04 47976   0.402E-02
   6 F= -.12557062E+04 E0= -.12557062E+04  d E =-.184445E+00  mag=    39.9926
       N       E                     dE             d eps       ncg     rms          rms(c)
DAV:   1    -0.125579374054E+04   -0.87518E-01   -0.34985E+01 43032   0.832E+00    0.233E+00
DAV:   2    -0.125588011275E+04   -0.86372E-01   -0.13849E+00 56700   0.188E+00    0.238E+00
DAV:   3    -0.125587026695E+04    0.98458E-02   -0.94546E-02 58284   0.566E-01    0.138E+00
DAV:   4    -0.125586433049E+04    0.59365E-02   -0.51006E-02 63384   0.391E-01    0.101E+00
DAV:   5    -0.125586298688E+04    0.13436E-02   -0.15245E-02 62688   0.235E-01    0.483E-01
DAV:   6    -0.125586270535E+04    0.28153E-03   -0.73995E-03 63372   0.138E-01    0.263E-01
DAV:   7    -0.125586272323E+04   -0.17885E-04   -0.16347E-03 61272   0.675E-02    0.128E-01
DAV:   8    -0.125586269531E+04    0.27927E-04   -0.40602E-04 43392   0.423E-02
   7 F= -.12558627E+04 E0= -.12558627E+04  d E =-.156475E+00  mag=    39.9946
       N       E                     dE             d eps       ncg     rms          rms(c)
DAV:   1    -0.125576160574E+04    0.10112E+00   -0.11766E+02 43104   0.152E+01    0.269E+00
DAV:   2    -0.125605417552E+04   -0.29257E+00   -0.33486E+00 53100   0.278E+00    0.189E+00
DAV:   3    -0.125605376476E+04    0.41077E-03   -0.18406E-01 61740   0.730E-01    0.120E+00
DAV:   4    -0.125604527634E+04    0.84884E-02   -0.27063E-02 63216   0.286E-01    0.671E-01
DAV:   5    -0.125603978433E+04    0.54920E-02   -0.18346E-02 58560   0.243E-01    0.318E-01
DAV:   6    -0.125603969758E+04    0.86757E-04   -0.98952E-03 60228   0.177E-01    0.186E-01
DAV:   7    -0.125603968958E+04    0.79935E-05   -0.35980E-03 62880   0.948E-02    0.122E-01
DAV:   8    -0.125603969402E+04   -0.44413E-05   -0.50818E-04 47376   0.398E-02
   8 F= -.12560397E+04 E0= -.12560397E+04  d E =-.176999E+00  mag=    39.9960
       N       E                     dE             d eps       ncg     rms          rms(c)
DAV:   1    -0.125601743119E+04    0.22258E-01   -0.31277E+01 43068   0.783E+00    0.115E+00
DAV:   2    -0.125610196780E+04   -0.84537E-01   -0.90340E-01 52752   0.140E+00    0.978E-01
DAV:   3    -0.125610178821E+04    0.17958E-03   -0.36359E-02 60468   0.315E-01    0.600E-01
DAV:   4    -0.125609989036E+04    0.18979E-02   -0.52609E-03 63072   0.138E-01    0.423E-01
DAV:   5    -0.125609858817E+04    0.13022E-02   -0.50100E-03 61200   0.150E-01    0.195E-01
DAV:   6    -0.125609881033E+04   -0.22216E-03   -0.36228E-03 58404   0.930E-02    0.125E-01
DAV:   7    -0.125609871691E+04    0.93419E-04   -0.81486E-04 51552   0.497E-02
   9 F= -.12560987E+04 E0= -.12560987E+04  d E =-.590229E-01  mag=    39.9969
       N       E                     dE             d eps       ncg     rms          rms(c)
DAV:   1    -0.125610823373E+04   -0.94234E-02   -0.30909E+00 43272   0.247E+00    0.568E-01
DAV:   2    -0.125611593732E+04   -0.77036E-02   -0.10130E-01 56628   0.521E-01    0.513E-01
DAV:   3    -0.125611578856E+04    0.14876E-03   -0.73898E-03 59616   0.158E-01    0.265E-01
DAV:   4    -0.125611549938E+04    0.28918E-03   -0.12240E-03 59016   0.654E-02    0.200E-01
DAV:   5    -0.125611538907E+04    0.11031E-03   -0.71269E-04 49812   0.463E-02    0.843E-02
DAV:   6    -0.125611536958E+04    0.19493E-04   -0.18799E-04 31992   0.314E-02
  10 F= -.12561154E+04 E0= -.12561154E+04  d E =-.166527E-01  mag=    39.9975
       N       E                     dE             d eps       ncg     rms          rms(c)
DAV:   1    -0.125610507486E+04    0.10314E-01   -0.19594E+01 43080   0.621E+00    0.105E+00
DAV:   2    -0.125615272396E+04   -0.47649E-01   -0.54804E-01 49380   0.107E+00    0.627E-01
DAV:   3    -0.125615266342E+04    0.60535E-04   -0.24413E-02 59412   0.260E-01    0.352E-01
DAV:   4    -0.125615145902E+04    0.12044E-02   -0.50999E-03 63336   0.130E-01    0.212E-01
DAV:   5    -0.125615102228E+04    0.43674E-03   -0.29855E-03 61416   0.103E-01    0.107E-01
DAV:   6    -0.125615101990E+04    0.23777E-05   -0.11525E-03 54648   0.568E-02    0.722E-02
DAV:   7    -0.125615101289E+04    0.70070E-05   -0.33914E-04 36348   0.308E-02
  11 F= -.12561510E+04 E0= -.12561510E+04  d E =-.356433E-01  mag=    39.9981
       N       E                     dE             d eps       ncg     rms          rms(c)
DAV:   1    -0.125615462734E+04   -0.36074E-02   -0.38745E+00 43152   0.277E+00    0.688E-01
DAV:   2    -0.125616514517E+04   -0.10518E-01   -0.13077E-01 56736   0.594E-01    0.604E-01
DAV:   3    -0.125616477756E+04    0.36762E-03   -0.10163E-02 59208   0.184E-01    0.281E-01
DAV:   4    -0.125616438729E+04    0.39026E-03   -0.19466E-03 60960   0.889E-02    0.223E-01
DAV:   5    -0.125616429230E+04    0.94997E-04   -0.95943E-04 52488   0.529E-02
  12 F= -.12561643E+04 E0= -.12561643E+04  d E =-.132794E-01  mag=    39.9984
       N       E                     dE             d eps       ncg     rms          rms(c)
DAV:   1    -0.125616806459E+04   -0.36773E-02   -0.48118E-01 43392   0.946E-01    0.288E-01
DAV:   2    -0.125616902049E+04   -0.95590E-03   -0.23440E-02 57660   0.292E-01    0.383E-01
DAV:   3    -0.125616890929E+04    0.11120E-03   -0.38546E-03 59148   0.938E-02    0.268E-01
DAV:   4    -0.125616871139E+04    0.19790E-03   -0.12598E-03 56100   0.576E-02    0.221E-01
DAV:   5    -0.125616867802E+04    0.33371E-04   -0.84864E-04 52932   0.522E-02
  13 F= -.12561687E+04 E0= -.12561687E+04  d E =-.438572E-02  mag=    39.9987
       N       E                     dE             d eps       ncg     rms          rms(c)
DAV:   1    -0.125617237478E+04   -0.36634E-02   -0.38930E-01 43464   0.875E-01    0.246E-01
DAV:   2    -0.125617303173E+04   -0.65695E-03   -0.14214E-02 58572   0.197E-01    0.212E-01
DAV:   3    -0.125617295517E+04    0.76563E-04   -0.17143E-03 58068   0.730E-02    0.894E-02
DAV:   4    -0.125617288925E+04    0.65922E-04   -0.24959E-04 34932   0.428E-02
  14 F= -.12561729E+04 E0= -.12561729E+04  d E =-.421123E-02  mag=    39.9989
       N       E                     dE             d eps       ncg     rms          rms(c)
DAV:   1    -0.125617642976E+04   -0.34746E-02   -0.18281E+00 43248   0.189E+00    0.329E-01
DAV:   2    -0.125618161721E+04   -0.51875E-02   -0.50009E-02 50112   0.335E-01    0.205E-01
DAV:   3    -0.125618172395E+04   -0.10674E-03   -0.20560E-03 58980   0.692E-02    0.109E-01
DAV:   4    -0.125618159362E+04    0.13033E-03   -0.27710E-04 38340   0.392E-02    0.789E-02
DAV:   5    -0.125618156180E+04    0.31822E-04   -0.54971E-04 45192   0.451E-02
  15 F= -.12561816E+04 E0= -.12561816E+04  d E =-.867256E-02  mag=    39.9991
       N       E                     dE             d eps       ncg     rms          rms(c)
DAV:   1    -0.125618478569E+04   -0.31921E-02   -0.11406E+00 43248   0.148E+00    0.389E-01
DAV:   2    -0.125618808118E+04   -0.32955E-02   -0.32033E-02 54120   0.287E-01    0.258E-01
DAV:   3    -0.125618835447E+04   -0.27328E-03   -0.34285E-03 58968   0.928E-02    0.131E-01
DAV:   4    -0.125618822792E+04    0.12654E-03   -0.49365E-04 46068   0.421E-02    0.904E-02
DAV:   5    -0.125618819632E+04    0.31605E-04   -0.32697E-04 35664   0.348E-02
  16 F= -.12561882E+04 E0= -.12561882E+04  d E =-.663452E-02  mag=    39.9992
       N       E                     dE             d eps       ncg     rms          rms(c)
DAV:   1    -0.125619052935E+04   -0.23014E-02   -0.25814E-01 43368   0.713E-01    0.143E-01
DAV:   2    -0.125619128751E+04   -0.75816E-03   -0.90304E-03 54996   0.161E-01    0.166E-01
DAV:   3    -0.125619124619E+04    0.41325E-04   -0.62200E-04 45648   0.460E-02
  17 F= -.12561912E+04 E0= -.12561912E+04  d E =-.304987E-02  mag=    39.9993
       N       E                     dE             d eps       ncg     rms          rms(c)
DAV:   1    -0.125619426839E+04   -0.29809E-02   -0.16820E+00 43188   0.182E+00    0.338E-01
DAV:   2    -0.125619847023E+04   -0.42018E-02   -0.45636E-02 50892   0.322E-01    0.189E-01
DAV:   3    -0.125619845875E+04    0.11480E-04   -0.19766E-03 59376   0.816E-02    0.116E-01
DAV:   4    -0.125619835615E+04    0.10259E-03   -0.42079E-04 43944   0.367E-02    0.686E-02
DAV:   5    -0.125619828784E+04    0.68315E-04   -0.16311E-04 30912   0.369E-02
  18 F= -.12561983E+04 E0= -.12561983E+04  d E =-.704165E-02  mag=    39.9994
       N       E                     dE             d eps       ncg     rms          rms(c)
DAV:   1    -0.125619911404E+04   -0.75789E-03   -0.22098E-02 44256   0.208E-01    0.539E-02
DAV:   2    -0.125619917116E+04   -0.57121E-04   -0.57700E-04 41172   0.390E-02
  19 F= -.12561992E+04 E0= -.12561992E+04  d E =-.883322E-03  mag=    39.9995
       N       E                     dE             d eps       ncg     rms          rms(c)
DAV:   1    -0.125620119568E+04   -0.20816E-02   -0.26531E-01 43812   0.749E-01    0.520E-01
DAV:   2    -0.125619867224E+04    0.25234E-02   -0.18443E-02 61716   0.243E-01    0.310E-01
DAV:   3    -0.125619836260E+04    0.30964E-03   -0.42365E-03 62052   0.137E-01    0.163E-01
DAV:   4    -0.125619828418E+04    0.78425E-04   -0.14177E-03 61872   0.601E-02    0.841E-02
DAV:   5    -0.125619825143E+04    0.32747E-04   -0.29784E-04 39384   0.356E-02
  20 F= -.12561983E+04 E0= -.12561983E+04  d E =0.919731E-03  mag=    39.9995
       N       E                     dE             d eps       ncg     rms          rms(c)
DAV:   1    -0.125619967435E+04   -0.13902E-02   -0.16658E+00 43164   0.180E+00    0.413E-01
DAV:   2    -0.125620510364E+04   -0.54293E-02   -0.46098E-02 50700   0.324E-01    0.237E-01
DAV:   3    -0.125620546649E+04   -0.36285E-03   -0.25412E-03 60840   0.735E-02    0.114E-01
DAV:   4    -0.125620533505E+04    0.13144E-03   -0.41192E-04 44328   0.407E-02    0.796E-02
DAV:   5    -0.125620531297E+04    0.22079E-04   -0.49340E-04 44016   0.410E-02
  21 F= -.12562053E+04 E0= -.12562053E+04  d E =-.706154E-02  mag=    39.9996
       N       E                     dE             d eps       ncg     rms          rms(c)
DAV:   1    -0.125621081270E+04   -0.54777E-02   -0.73644E-01 43752   0.124E+00    0.473E-01
DAV:   2    -0.125621001474E+04    0.79796E-03   -0.34090E-02 58776   0.313E-01    0.388E-01
DAV:   3    -0.125620940985E+04    0.60490E-03   -0.43772E-03 59004   0.138E-01    0.184E-01
DAV:   4    -0.125620927589E+04    0.13396E-03   -0.97657E-04 58452   0.621E-02    0.128E-01
DAV:   5    -0.125620923510E+04    0.40787E-04   -0.27220E-04 34464   0.351E-02
  22 F= -.12562092E+04 E0= -.12562092E+04  d E =-.392213E-02  mag=    39.9997
       N       E                     dE             d eps       ncg     rms          rms(c)
DAV:   1    -0.125620792474E+04    0.13511E-02   -0.36519E+00 43032   0.268E+00    0.485E-01
DAV:   2    -0.125621868525E+04   -0.10761E-01   -0.10122E-01 49044   0.480E-01    0.294E-01
DAV:   3    -0.125621893586E+04   -0.25061E-03   -0.38124E-03 60516   0.981E-02    0.161E-01
DAV:   4    -0.125621872270E+04    0.21316E-03   -0.63804E-04 48648   0.484E-02    0.111E-01
DAV:   5    -0.125621858321E+04    0.13949E-03   -0.46271E-04 42660   0.537E-02    0.485E-02
DAV:   6    -0.125621860352E+04   -0.20304E-04   -0.30473E-04 36600   0.295E-02
  23 F= -.12562186E+04 E0= -.12562186E+04  d E =-.936841E-02  mag=    39.9998
       N       E                     dE             d eps       ncg     rms          rms(c)
DAV:   1    -0.125621963137E+04   -0.10482E-02   -0.55610E-01 43176   0.104E+00    0.259E-01
DAV:   2    -0.125622124527E+04   -0.16139E-02   -0.20103E-02 56748   0.249E-01    0.291E-01
DAV:   3    -0.125622123195E+04    0.13324E-04   -0.25016E-03 61308   0.837E-02    0.185E-01
DAV:   4    -0.125622113273E+04    0.99220E-04   -0.48805E-04 45336   0.367E-02
  24 F= -.12562211E+04 E0= -.12562211E+04  d E =-.252921E-02  mag=    39.9998
       N       E                     dE             d eps       ncg     rms          rms(c)
DAV:   1    -0.125622255032E+04   -0.13184E-02   -0.13006E-01 43272   0.497E-01    0.135E-01
DAV:   2    -0.125622297923E+04   -0.42891E-03   -0.70368E-03 59580   0.152E-01    0.210E-01
DAV:   3    -0.125622285982E+04    0.11941E-03   -0.56461E-04 43812   0.453E-02    0.123E-01
DAV:   4    -0.125622281258E+04    0.47243E-04   -0.21908E-04 33780   0.225E-02
  25 F= -.12562228E+04 E0= -.12562228E+04  d E =-.167985E-02  mag=    39.9998
       N       E                     dE             d eps       ncg     rms          rms(c)
DAV:   1    -0.125622427669E+04   -0.14169E-02   -0.93430E-01 43116   0.135E+00    0.243E-01
DAV:   2    -0.125622692302E+04   -0.26463E-02   -0.25531E-02 50472   0.241E-01    0.147E-01
DAV:   3    -0.125622697186E+04   -0.48838E-04   -0.10871E-03 55776   0.533E-02    0.832E-02
DAV:   4    -0.125622691868E+04    0.53179E-04   -0.98024E-05 27780   0.235E-02
  26 F= -.12562269E+04 E0= -.12562269E+04  d E =-.410610E-02  mag=    39.9998
       N       E                     dE             d eps       ncg     rms          rms(c)
DAV:   1    -0.125622751487E+04   -0.54301E-03   -0.22125E-02 43860   0.208E-01    0.520E-02
DAV:   2    -0.125622754435E+04   -0.29485E-04   -0.49534E-04 39252   0.377E-02
  27 F= -.12562275E+04 E0= -.12562275E+04  d E =-.625673E-03  mag=    39.9998
       N       E                     dE             d eps       ncg     rms          rms(c)
DAV:   1    -0.125622967617E+04   -0.21613E-02   -0.81236E-01 43080   0.127E+00    0.330E-01
DAV:   2    -0.125623123251E+04   -0.15563E-02   -0.24801E-02 54012   0.243E-01    0.202E-01
DAV:   3    -0.125623122176E+04    0.10749E-04   -0.20756E-03 57888   0.884E-02    0.101E-01
DAV:   4    -0.125623113081E+04    0.90950E-04   -0.20809E-04 31680   0.335E-02
  28 F= -.12562311E+04 E0= -.12562311E+04  d E =-.358645E-02  mag=    39.9999
       N       E                     dE             d eps       ncg     rms          rms(c)
DAV:   1    -0.125623248986E+04   -0.12681E-02   -0.16372E-01 43344   0.570E-01    0.134E-01
DAV:   2    -0.125623279757E+04   -0.30770E-03   -0.54524E-03 57912   0.126E-01    0.127E-01
DAV:   3    -0.125623275375E+04    0.43819E-04   -0.41562E-04 42228   0.407E-02
  29 F= -.12562328E+04 E0= -.12562328E+04  d E =-.162294E-02  mag=    39.9999
       N       E                     dE             d eps       ncg     rms          rms(c)
DAV:   1    -0.125623390335E+04   -0.11058E-02   -0.86498E-01 43032   0.130E+00    0.253E-01
DAV:   2    -0.125623629287E+04   -0.23895E-02   -0.22702E-02 52044   0.229E-01    0.164E-01
DAV:   3    -0.125623637351E+04   -0.80643E-04   -0.11865E-03 56736   0.529E-02    0.104E-01
DAV:   4    -0.125623631232E+04    0.61189E-04   -0.99339E-05 26928   0.222E-02
  30 F= -.12562363E+04 E0= -.12562363E+04  d E =-.355857E-02  mag=    39.9999
       N       E                     dE             d eps       ncg     rms          rms(c)
DAV:   1    -0.125623764861E+04   -0.12751E-02   -0.32921E-01 43140   0.802E-01    0.146E-01
DAV:   2    -0.125623848214E+04   -0.83353E-03   -0.87404E-03 51276   0.142E-01    0.977E-02
DAV:   3    -0.125623849123E+04   -0.90898E-05   -0.39793E-04 41340   0.347E-02
  31 F= -.12562385E+04 E0= -.12562385E+04  d E =-.217891E-02  mag=    39.9999
       N       E                     dE             d eps       ncg     rms          rms(c)
DAV:   1    -0.125623829432E+04    0.18782E-03   -0.23243E+00 43128   0.214E+00    0.400E-01
DAV:   2    -0.125624395204E+04   -0.56577E-02   -0.62828E-02 48432   0.371E-01    0.214E-01
DAV:   3    -0.125624394540E+04    0.66464E-05   -0.25270E-03 60324   0.892E-02    0.132E-01
DAV:   4    -0.125624379897E+04    0.14642E-03   -0.49320E-04 44796   0.417E-02    0.800E-02
DAV:   5    -0.125624372307E+04    0.75906E-04   -0.18986E-04 29556   0.348E-02
  32 F= -.12562437E+04 E0= -.12562437E+04  d E =-.523184E-02  mag=    39.9999
       N       E                     dE             d eps       ncg     rms          rms(c)
DAV:   1    -0.125624430032E+04   -0.50135E-03   -0.24580E-02 43824   0.222E-01    0.111E-01
DAV:   2    -0.125624425426E+04    0.46060E-04   -0.10375E-03 50640   0.575E-02    0.744E-02
DAV:   3    -0.125624424469E+04    0.95722E-05   -0.14052E-04 30024   0.290E-02
  33 F= -.12562442E+04 E0= -.12562442E+04  d E =-.521625E-03  mag=    39.9999
       N       E                     dE             d eps       ncg     rms          rms(c)
DAV:   1    -0.125624474105E+04   -0.48678E-03   -0.62172E-02 43716   0.356E-01    0.155E-01
DAV:   2    -0.125624475480E+04   -0.13754E-04   -0.43320E-03 59760   0.118E-01    0.174E-01
DAV:   3    -0.125624464918E+04    0.10562E-03   -0.50183E-04 44304   0.433E-02    0.105E-01
DAV:   4    -0.125624463213E+04    0.17045E-04   -0.20032E-04 30624   0.232E-02
  34 F= -.12562446E+04 E0= -.12562446E+04  d E =-.387441E-03  mag=    39.9999
       N       E                     dE             d eps       ncg     rms          rms(c)
DAV:   1    -0.125624573789E+04   -0.10887E-02   -0.50329E-01 43080   0.989E-01    0.167E-01
DAV:   2    -0.125624703385E+04   -0.12960E-02   -0.13502E-02 51600   0.176E-01    0.105E-01
DAV:   3    -0.125624706888E+04   -0.35034E-04   -0.81374E-04 51492   0.455E-02
  35 F= -.12562471E+04 E0= -.12562471E+04  d E =-.243675E-02  mag=    39.9999
       N       E                     dE             d eps       ncg     rms          rms(c)
DAV:   1    -0.125624802248E+04   -0.98863E-03   -0.19739E-01 43200   0.620E-01    0.115E-01
DAV:   2    -0.125624847885E+04   -0.45637E-03   -0.50643E-03 49392   0.108E-01    0.733E-02
DAV:   3    -0.125624846232E+04    0.16529E-04   -0.13839E-04 29988   0.233E-02
  36 F= -.12562485E+04 E0= -.12562485E+04  d E =-.139344E-02  mag=    39.9999
       N       E                     dE             d eps       ncg     rms          rms(c)
DAV:   1    -0.125624865473E+04   -0.17588E-03   -0.69289E-02 43320   0.376E-01    0.235E-01
DAV:   2    -0.125624843567E+04    0.21906E-03   -0.68501E-03 60600   0.150E-01    0.244E-01
DAV:   3    -0.125624824322E+04    0.19245E-03   -0.11274E-03 57672   0.632E-02    0.143E-01
DAV:   4    -0.125624819693E+04    0.46293E-04   -0.35878E-04 38856   0.289E-02
  37 F= -.12562482E+04 E0= -.12562482E+04  d E =0.265394E-03  mag=    40.0000
       N       E                     dE             d eps       ncg     rms          rms(c)
DAV:   1    -0.125624907073E+04   -0.82751E-03   -0.94853E-02 43104   0.431E-01    0.150E-01
DAV:   2    -0.125624923355E+04   -0.16282E-03   -0.55111E-03 56220   0.139E-01    0.190E-01
DAV:   3    -0.125624914117E+04    0.92376E-04   -0.59620E-04 45804   0.472E-02
  38 F= -.12562491E+04 E0= -.12562491E+04  d E =-.944248E-03  mag=    40.0000
       N       E                     dE             d eps       ncg     rms          rms(c)
DAV:   1    -0.125625013618E+04   -0.90263E-03   -0.42957E-01 43032   0.916E-01    0.205E-01
DAV:   2    -0.125625121684E+04   -0.10807E-02   -0.12802E-02 56616   0.179E-01    0.147E-01
DAV:   3    -0.125625117787E+04    0.38966E-04   -0.97383E-04 54768   0.622E-02
  39 F= -.12562512E+04 E0= -.12562512E+04  d E =-.203670E-02  mag=    40.0000
       N       E                     dE             d eps       ncg     rms          rms(c)
DAV:   1    -0.125625197434E+04   -0.75750E-03   -0.17725E-01 43332   0.587E-01    0.120E-01
DAV:   2    -0.125625244614E+04   -0.47180E-03   -0.46104E-03 51780   0.107E-01    0.960E-02
DAV:   3    -0.125625244377E+04    0.23639E-05   -0.15531E-04 27492   0.255E-02
  40 F= -.12562524E+04 E0= -.12562524E+04  d E =-.126590E-02  mag=    40.0000
       N       E                     dE             d eps       ncg     rms          rms(c)
DAV:   1    -0.125625308915E+04   -0.64301E-03   -0.94499E-02 43176   0.429E-01    0.899E-02
DAV:   2    -0.125625334215E+04   -0.25300E-03   -0.25845E-03 54180   0.797E-02    0.728E-02
DAV:   3    -0.125625333241E+04    0.97462E-05   -0.93266E-05 26316   0.209E-02
  41 F= -.12562533E+04 E0= -.12562533E+04  d E =-.888635E-03  mag=    40.0000
       N       E                     dE             d eps       ncg     rms          rms(c)
DAV:   1    -0.125625387329E+04   -0.53113E-03   -0.62539E-01 43128   0.110E+00    0.196E-01
DAV:   2    -0.125625561908E+04   -0.17458E-02   -0.16422E-02 47796   0.189E-01    0.115E-01
DAV:   3    -0.125625565184E+04   -0.32759E-04   -0.58797E-04 47460   0.348E-02
  42 F= -.12562557E+04 E0= -.12562557E+04  d E =-.231943E-02  mag=    40.0000
       N       E                     dE             d eps       ncg     rms          rms(c)
DAV:   1    -0.125625660115E+04   -0.98207E-03   -0.43059E-01 43128   0.915E-01    0.196E-01
DAV:   2    -0.125625751842E+04   -0.91727E-03   -0.11716E-02 52668   0.165E-01    0.142E-01
DAV:   3    -0.125625747539E+04    0.43027E-04   -0.74679E-04 50736   0.518E-02
  43 F= -.12562575E+04 E0= -.12562575E+04  d E =-.182355E-02  mag=    40.0000
       N       E                     dE             d eps       ncg     rms          rms(c)
DAV:   1    -0.125625800941E+04   -0.49099E-03   -0.88177E-02 43344   0.415E-01    0.888E-02
DAV:   2    -0.125625823723E+04   -0.22782E-03   -0.27686E-03 54060   0.910E-02    0.984E-02
DAV:   3    -0.125625821305E+04    0.24183E-04   -0.16816E-04 29136   0.267E-02
  44 F= -.12562582E+04 E0= -.12562582E+04  d E =-.737659E-03  mag=    40.0000
       N       E                     dE             d eps       ncg     rms          rms(c)
DAV:   1    -0.125625889445E+04   -0.65722E-03   -0.24783E-01 43104   0.695E-01    0.136E-01
DAV:   2    -0.125625955525E+04   -0.66080E-03   -0.64243E-03 49536   0.118E-01    0.751E-02
DAV:   3    -0.125625956158E+04   -0.63309E-05   -0.23064E-04 33060   0.284E-02
  45 F= -.12562596E+04 E0= -.12562596E+04  d E =-.134853E-02  mag=    40.0000
       N       E                     dE             d eps       ncg     rms          rms(c)
DAV:   1    -0.125625979271E+04   -0.23746E-03   -0.78284E-01 43248   0.123E+00    0.205E-01
DAV:   2    -0.125626186594E+04   -0.20732E-02   -0.20427E-02 48552   0.210E-01    0.133E-01
DAV:   3    -0.125626188096E+04   -0.15021E-04   -0.77889E-04 51960   0.412E-02
  46 F= -.12562619E+04 E0= -.12562619E+04  d E =-.231937E-02  mag=    40.0000
       N       E                     dE             d eps       ncg     rms          rms(c)
DAV:   1    -0.125625887265E+04    0.29933E-02   -0.26209E+00 43104   0.226E+00    0.381E-01
DAV:   2    -0.125626578245E+04   -0.69098E-02   -0.67932E-02 47448   0.385E-01    0.224E-01
DAV:   3    -0.125626589372E+04   -0.11127E-03   -0.26513E-03 61404   0.749E-02    0.137E-01
DAV:   4    -0.125626573012E+04    0.16361E-03   -0.27098E-04 36732   0.337E-02    0.894E-02
DAV:   5    -0.125626563288E+04    0.97237E-04   -0.53103E-04 45048   0.522E-02
  47 F= -.12562656E+04 E0= -.12562656E+04  d E =-.375193E-02  mag=    40.0000
       N       E                     dE             d eps       ncg     rms          rms(c)
DAV:   1    -0.125626504069E+04    0.68943E-03   -0.91718E-02 43260   0.430E-01    0.115E-01
DAV:   2    -0.125626517457E+04   -0.13388E-03   -0.37790E-03 57264   0.115E-01    0.150E-01
DAV:   3    -0.125626513557E+04    0.38999E-04   -0.30778E-04 35112   0.347E-02
  48 F= -.12562651E+04 E0= -.12562651E+04  d E =0.497313E-03  mag=    40.0000
       N       E                     dE             d eps       ncg     rms          rms(c)
DAV:   1    -0.125626534882E+04   -0.17425E-03   -0.37823E-01 43032   0.861E-01    0.197E-01
DAV:   2    -0.125626645874E+04   -0.11099E-02   -0.11279E-02 53280   0.164E-01    0.142E-01
DAV:   3    -0.125626648727E+04   -0.28528E-04   -0.60871E-04 49260   0.475E-02
  49 F= -.12562665E+04 E0= -.12562665E+04  d E =-.135170E-02  mag=    40.0000
       N       E                     dE             d eps       ncg     rms          rms(c)
DAV:   1    -0.125626698988E+04   -0.53114E-03   -0.10004E-01 43104   0.444E-01    0.987E-02
DAV:   2    -0.125626721897E+04   -0.22909E-03   -0.28824E-03 55056   0.859E-02    0.762E-02
DAV:   3    -0.125626720977E+04    0.92036E-05   -0.12115E-04 27348   0.258E-02
  50 F= -.12562672E+04 E0= -.12562672E+04  d E =-.722501E-03  mag=    40.0000
       N       E                     dE             d eps       ncg     rms          rms(c)
DAV:   1    -0.125626764363E+04   -0.42466E-03   -0.27249E-01 43152   0.732E-01    0.130E-01
DAV:   2    -0.125626829692E+04   -0.65329E-03   -0.71621E-03 50136   0.127E-01    0.792E-02
DAV:   3    -0.125626828240E+04    0.14520E-04   -0.24379E-04 35820   0.276E-02
  51 F= -.12562683E+04 E0= -.12562683E+04  d E =-.107263E-02  mag=    40.0000
       N       E                     dE             d eps       ncg     rms          rms(c)
DAV:   1    -0.125626866419E+04   -0.36727E-03   -0.49624E-02 43320   0.309E-01    0.718E-02
DAV:   2    -0.125626878686E+04   -0.12268E-03   -0.15874E-03 57024   0.646E-02    0.772E-02
DAV:   3    -0.125626877065E+04    0.16212E-04   -0.89520E-05 24408   0.201E-02
  52 F= -.12562688E+04 E0= -.12562688E+04  d E =-.488254E-03  mag=    40.0000
       N       E                     dE             d eps       ncg     rms          rms(c)
DAV:   1    -0.125626920119E+04   -0.41433E-03   -0.18006E-01 43032   0.593E-01    0.130E-01
DAV:   2    -0.125626965526E+04   -0.45407E-03   -0.50238E-03 52020   0.108E-01    0.822E-02
DAV:   3    -0.125626964567E+04    0.95884E-05   -0.19695E-04 32964   0.295E-02
  53 F= -.12562696E+04 E0= -.12562696E+04  d E =-.875020E-03  mag=    40.0000
       N       E                     dE             d eps       ncg     rms          rms(c)
DAV:   1    -0.125627001002E+04   -0.35476E-03   -0.23036E-01 43128   0.672E-01    0.123E-01
DAV:   2    -0.125627057847E+04   -0.56846E-03   -0.64347E-03 52728   0.124E-01    0.964E-02
DAV:   3    -0.125627056571E+04    0.12759E-04   -0.25770E-04 33660   0.321E-02
  54 F= -.12562706E+04 E0= -.12562706E+04  d E =-.920042E-03  mag=    40.0000
       N       E                     dE             d eps       ncg     rms          rms(c)
