BiTiFeO                                 
           1
    11.046869   -0.008990   -0.002786
    -0.004504    5.524620    0.000002
    -0.010474    0.062723   40.664331
   Bi   Ti   O    Fe
  40  24 120   8
Direct configuration=     1
   0.12581734  0.24552768  0.10456018
   0.62581736  0.24552768  0.10456018
   0.11884221  0.27533320  0.21951799
   0.61884218  0.27533320  0.21951799
   0.12581734  0.74552768  0.60456020
   0.62581736  0.74552768  0.60456020
   0.11884221  0.77533323  0.71951795
   0.61884218  0.77533323  0.71951795
   0.37581733  0.75447232  0.89543980
   0.87581730  0.75447232  0.89543980
   0.36884218  0.72466677  0.78048205
   0.86884218  0.72466677  0.78048205
   0.37581733  0.25447232  0.39543983
   0.87581730  0.25447232  0.39543983
   0.36884218  0.22466679  0.28048199
   0.86884218  0.22466679  0.28048199
   0.37389028  0.75425547  0.10488448
   0.87389028  0.75425547  0.10488448
   0.36734301  0.72707325  0.21940872
   0.86734301  0.72707325  0.21940872
   0.37389028  0.25425550  0.60488451
   0.87389028  0.25425550  0.60488451
   0.36734301  0.22707324  0.71940875
   0.86734301  0.22707324  0.71940875
   0.12389029  0.24574450  0.89511549
   0.62389028  0.24574450  0.89511549
   0.11734302  0.27292678  0.78059125
   0.61734301  0.27292678  0.78059125
   0.12389029  0.74574453  0.39511553
   0.62389028  0.74574453  0.39511553
   0.11734302  0.77292675  0.28059128
   0.61734301  0.77292675  0.28059128
   0.12124083  0.24192810  0.00106251
   0.62124085  0.24192810  0.00106251
   0.12124083  0.74192810  0.50106251
   0.62124085  0.74192810  0.50106251
   0.37124082  0.75807190  0.99893749
   0.87124085  0.75807190  0.99893749
   0.37124082  0.25807190  0.49893743
   0.87124085  0.25807190  0.49893743
   0.39778417  0.74996662  0.65309596
   0.89778417  0.74996662  0.65309596
   0.39778417  0.24996664  0.15309598
   0.89778417  0.24996664  0.15309598
   0.39509413  0.75150693  0.45036468
   0.89509416  0.75150693  0.45036468
   0.39509413  0.25150693  0.95036465
   0.89509416  0.25150693  0.95036465
   0.14509413  0.24849309  0.54963535
   0.64509416  0.24849309  0.54963535
   0.14737405  0.25028604  0.65248573
   0.64737403  0.25028604  0.65248573
   0.14737405  0.75028604  0.15248573
   0.64737403  0.75028604  0.15248573
   0.14509413  0.74849307  0.04963534
   0.64509416  0.74849307  0.04963534
   0.14572605  0.24496144  0.45021892
   0.64572608  0.24496144  0.45021892
   0.14572605  0.74496144  0.95021892
   0.64572608  0.74496144  0.95021892
   0.39572605  0.75503856  0.54978108
   0.89572608  0.75503856  0.54978108
   0.39572605  0.25503856  0.04978108
   0.89572608  0.25503856  0.04978108
   0.30398616  0.55333757  0.05623510
   0.80398619  0.55333757  0.05623510
   0.16037145  0.32244712  0.40269166
   0.66037142  0.32244712  0.40269166
   0.26384732  0.47232899  0.13806446
   0.76384735  0.47232899  0.13806446
   0.14598581  0.18621907  0.30358261
   0.64598584  0.18621907  0.30358261
   0.25139269  0.49499974  0.25136027
   0.75139272  0.49499974  0.25136027
   0.00183105  0.96418035  0.03809405
   0.50183105  0.96418035  0.03809405
   0.05208983  0.05360783  0.15095773
   0.55208981  0.05360783  0.15095773
   0.30398616  0.05333758  0.55623508
   0.80398619  0.05333758  0.55623508
   0.16037145  0.82244712  0.90269166
   0.66037142  0.82244712  0.90269166
   0.26384732  0.97232902  0.63806444
   0.76384735  0.97232902  0.63806444
   0.14598581  0.68621904  0.80358261
   0.64598584  0.68621904  0.80358261
   0.25139269  0.99499977  0.75136030
   0.75139272  0.99499977  0.75136030
   0.00183105  0.46418038  0.53809404
   0.50183105  0.46418038  0.53809404
   0.05208983  0.55360788  0.65095776
   0.55208981  0.55360788  0.65095776
   0.05398618  0.44666240  0.94376492
   0.55398619  0.44666240  0.94376492
   0.41037145  0.67755288  0.59730834
   0.91037142  0.67755288  0.59730834
   0.01384731  0.52767098  0.86193556
   0.51384729  0.52767098  0.86193556
   0.39598584  0.81378096  0.69641739
   0.89598584  0.81378096  0.69641739
   0.00139270  0.50500023  0.74863970
   0.50139272  0.50500023  0.74863970
   0.25183105  0.03581963  0.96190596
   0.75183105  0.03581963  0.96190596
   0.30208984  0.94639212  0.84904224
   0.80208981  0.94639212  0.84904224
   0.05398618  0.94666243  0.44376490
   0.55398619  0.94666243  0.44376490
   0.41037145  0.17755288  0.09730835
   0.91037142  0.17755288  0.09730835
   0.01384731  0.02767100  0.36193556
   0.51384729  0.02767100  0.36193556
   0.39598584  0.31378096  0.19641739
   0.89598584  0.31378096  0.19641739
   0.00139270  0.00500026  0.24863972
   0.50139272  0.00500026  0.24863972
   0.25183105  0.53581965  0.46190593
   0.75183105  0.53581965  0.46190593
   0.30208984  0.44639218  0.34904227
   0.80208981  0.44639218  0.34904227
   0.05373246  0.42657372  0.05429961
   0.55373246  0.42657372  0.05429961
   0.41462371  0.67528647  0.40033671
   0.91462374  0.67528647  0.40033671
   0.01342812  0.52419931  0.13827106
   0.51342809  0.52419931  0.13827106
   0.39733556  0.81472349  0.30391791
   0.89733553  0.81472349  0.30391791
   0.00137807  0.50483209  0.25127208
   0.50137806  0.50483209  0.25127208
   0.25423092  0.05460011  0.03958693
   0.75423092  0.05460011  0.03958693
   0.30389983  0.94555801  0.15167758
   0.80389983  0.94555801  0.15167758
   0.05373246  0.92657369  0.55429965
   0.55373246  0.92657369  0.55429965
   0.41462371  0.17528649  0.90033674
   0.91462374  0.17528649  0.90033674
   0.01342812  0.02419928  0.63827103
   0.51342809  0.02419928  0.63827103
   0.39733556  0.31472352  0.80391788
   0.89733553  0.31472352  0.80391788
   0.00137807  0.00483209  0.75127208
   0.50137806  0.00483209  0.75127208
   0.25423092  0.55460012  0.53958690
   0.75423092  0.55460012  0.53958690
   0.30389983  0.44555801  0.65167761
   0.80389983  0.44555801  0.65167761
   0.30373246  0.57342631  0.94570035
   0.80373246  0.57342631  0.94570035
   0.16462369  0.32471353  0.59966326
   0.66462368  0.32471353  0.59966326
   0.26342809  0.47580072  0.86172897
   0.76342809  0.47580072  0.86172897
   0.14733557  0.18527651  0.69608212
   0.64733559  0.18527651  0.69608212
   0.25137809  0.49516791  0.74872792
   0.75137806  0.49516791  0.74872792
   0.00423092  0.94539988  0.96041310
   0.50423092  0.94539988  0.96041310
   0.05389983  0.05444197  0.84832239
   0.55389983  0.05444197  0.84832239
   0.30373246  0.07342626  0.44570041
   0.80373246  0.07342626  0.44570041
   0.16462369  0.82471353  0.09966327
   0.66462368  0.82471353  0.09966327
   0.26342809  0.97580069  0.36172894
   0.76342809  0.97580069  0.36172894
   0.14733557  0.68527651  0.19608207
   0.64733559  0.68527651  0.19608207
   0.25137809  0.99516791  0.24872789
   0.75137806  0.99516791  0.24872789
   0.00423092  0.44539991  0.46041310
   0.50423092  0.44539991  0.46041310
   0.05389983  0.55444199  0.34832245
   0.55389983  0.55444199  0.34832245
   0.15875485  0.15670252  0.49889919
   0.65875483  0.15670252  0.49889919
   0.15875485  0.65670258  0.99889922
   0.65875483  0.65670258  0.99889922
   0.40875485  0.84329742  0.50110078
   0.90875483  0.84329742  0.50110078
   0.40875485  0.34329748  0.00110078
   0.90875483  0.34329748  0.00110078
   0.14778419  0.25003338  0.34690401
   0.64778417  0.25003338  0.34690401
   0.14778419  0.75003338  0.84690404
   0.64778417  0.75003338  0.84690404
   0.39737403  0.74971396  0.34751427
   0.89737403  0.74971396  0.34751427
   0.39737403  0.24971396  0.84751427
   0.89737403  0.24971396  0.84751427
BiTiFeO                                 
           1
    11.000642   -0.004281    0.010781
    -0.002149    5.501728   -0.002490
     0.039566    0.044156   40.823591
   Bi   Ti   O    Fe
  40  24 120   8
Direct configuration=     2
   0.12572204  0.24527984  0.10493767
   0.62572206  0.24527984  0.10493767
   0.11893859  0.27475033  0.22020329
   0.61893857  0.27475033  0.22020329
   0.12572204  0.74527984  0.60493769
   0.62572206  0.74527984  0.60493769
   0.11893859  0.77475036  0.72020325
   0.61893857  0.77475036  0.72020325
   0.37600643  0.75185439  0.89270735
   0.87600640  0.75185439  0.89270735
   0.36824009  0.72252128  0.78167506
   0.86824009  0.72252128  0.78167506
   0.37600643  0.25185439  0.39270738
   0.87600640  0.25185439  0.39270738
   0.36824009  0.22252130  0.28167500
   0.86824009  0.22252130  0.28167500
   0.37341712  0.75418290  0.10515295
   0.87341712  0.75418290  0.10515295
   0.36738933  0.72767206  0.22011871
   0.86738933  0.72767206  0.22011871
   0.37341712  0.25418293  0.60515297
   0.87341712  0.25418293  0.60515297
   0.36738933  0.22767205  0.72011874
   0.86738933  0.22767205  0.72011874
   0.12511244  0.24799692  0.89247722
   0.62511243  0.24799692  0.89247722
   0.11661201  0.27504077  0.78178682
   0.61661200  0.27504077  0.78178682
   0.12511244  0.74799695  0.39247725
   0.62511243  0.74799695  0.39247725
   0.11661201  0.77504074  0.28178685
   0.61661200  0.77504074  0.28178685
   0.12203746  0.24174348  0.00130690
   0.62203749  0.24174348  0.00130690
   0.12203746  0.74174348  0.50130690
   0.62203749  0.74174348  0.50130690
   0.37206009  0.75895437  0.99919205
   0.87206012  0.75895437  0.99919205
   0.37206009  0.25895437  0.49919199
   0.87206012  0.25895437  0.49919199
   0.39805297  0.75003979  0.65353304
   0.89805297  0.75003979  0.65353304
   0.39805297  0.25003981  0.15353306
   0.89805297  0.25003981  0.15353306
   0.39522200  0.75421549  0.44874939
   0.89522203  0.75421549  0.44874939
   0.39522200  0.25421549  0.94874936
   0.89522203  0.25421549  0.94874936
   0.14564917  0.24794970  0.54983788
   0.64564920  0.24794970  0.54983788
   0.14737257  0.25014309  0.65308819
   0.64737255  0.25014309  0.65308819
   0.14737257  0.75014309  0.15308819
   0.64737255  0.75014309  0.15308819
   0.14564917  0.74794969  0.04983787
   0.64564920  0.74794969  0.04983787
   0.14548270  0.24474507  0.44876558
   0.64548273  0.24474507  0.44876558
   0.14548270  0.74474507  0.94876558
   0.64548273  0.74474507  0.94876558
   0.39580609  0.75430039  0.55031619
   0.89580612  0.75430039  0.55031619
   0.39580609  0.25430039  0.05031619
   0.89580612  0.25430039  0.05031619
   0.30506799  0.55145909  0.05603833
   0.80506802  0.55145909  0.05603833
   0.15994498  0.32040517  0.40419290
   0.65994495  0.32040517  0.40419290
   0.26400906  0.47229897  0.13782560
   0.76400909  0.47229897  0.13782560
   0.14652019  0.18513141  0.30338282
   0.64652022  0.18513141  0.30338282
   0.25123650  0.49516906  0.25081432
   0.75123653  0.49516906  0.25081432
   0.00029331  0.96659604  0.03794199
   0.50029331  0.96659604  0.03794199
   0.05201671  0.05488370  0.15068582
   0.55201669  0.05488370  0.15068582
   0.30506799  0.05145910  0.55603831
   0.80506802  0.05145910  0.55603831
   0.15994498  0.82040517  0.90419290
   0.65994495  0.82040517  0.90419290
   0.26400906  0.97229900  0.63782558
   0.76400909  0.97229900  0.63782558
   0.14652019  0.68513139  0.80338282
   0.64652022  0.68513139  0.80338282
   0.25123650  0.99516909  0.75081435
   0.75123653  0.99516909  0.75081435
   0.00029331  0.46659607  0.53794198
   0.50029331  0.46659607  0.53794198
   0.05201671  0.55488376  0.65068585
   0.55201669  0.55488376  0.65068585
   0.05070383  0.44377566  0.94467114
   0.55070384  0.44377566  0.94467114
   0.41037818  0.67781763  0.59697030
   0.91037815  0.67781763  0.59697030
   0.01384505  0.52789088  0.86258249
   0.51384504  0.52789088  0.86258249
   0.39576669  0.81305352  0.69612318
   0.89576669  0.81305352  0.69612318
   0.00146774  0.50502369  0.74813716
   0.50146777  0.50502369  0.74813716
   0.25471194  0.04108171  0.96194263
   0.75471194  0.04108171  0.96194263
   0.30254419  0.94574567  0.84965915
   0.80254416  0.94574567  0.84965915
   0.05070383  0.94377569  0.44467111
   0.55070384  0.94377569  0.44467111
   0.41037818  0.17781763  0.09697032
   0.91037815  0.17781763  0.09697032
   0.01384505  0.02789090  0.36258249
   0.51384504  0.02789090  0.36258249
   0.39576669  0.31305352  0.19612318
   0.89576669  0.31305352  0.19612318
   0.00146774  0.00502372  0.24813718
   0.50146777  0.00502372  0.24813718
   0.25471194  0.54108173  0.46194260
   0.75471194  0.54108173  0.46194260
   0.30254419  0.44574573  0.34965918
   0.80254416  0.44574573  0.34965918
   0.05380957  0.42781781  0.05436866
   0.55380956  0.42781781  0.05436866
   0.41308743  0.67865863  0.40286909
   0.91308746  0.67865863  0.40286909
   0.01308755  0.52344099  0.13800937
   0.51308753  0.52344099  0.13800937
   0.39801386  0.81531359  0.30389657
   0.89801383  0.81531359  0.30389657
   0.00130416  0.50459556  0.25073278
   0.50130414  0.50459556  0.25073278
   0.25372234  0.05309890  0.03939265
   0.75372234  0.05309890  0.03939265
   0.30422989  0.94534454  0.15140195
   0.80422989  0.94534454  0.15140195
   0.05380957  0.92781778  0.55436871
   0.55380956  0.92781778  0.55436871
   0.41308743  0.17865865  0.90286912
   0.91308746  0.17865865  0.90286912
   0.01308755  0.02344096  0.63800934
   0.51308753  0.02344096  0.63800934
   0.39801386  0.31531362  0.80389654
   0.89801383  0.31531362  0.80389654
   0.00130416  0.00459556  0.75073278
   0.50130414  0.00459556  0.75073278
   0.25372234  0.55309891  0.53939262
   0.75372234  0.55309891  0.53939262
   0.30422989  0.44534454  0.65140198
   0.80422989  0.44534454  0.65140198
   0.30577682  0.56194521  0.94641801
   0.80577682  0.56194521  0.94641801
   0.16403336  0.32462168  0.59937496
   0.66403335  0.32462168  0.59937496
   0.26346849  0.47554387  0.86234971
   0.76346849  0.47554387  0.86234971
   0.14725433  0.18569610  0.69576458
   0.64725435  0.18569610  0.69576458
   0.25136615  0.49526342  0.74822083
   0.75136612  0.49526342  0.74822083
   0.00153900  0.95298438  0.96064717
   0.50153900  0.95298438  0.96064717
   0.05432079  0.05429518  0.84885176
   0.55432079  0.05429518  0.84885176
   0.30577682  0.06194516  0.44641807
   0.80577682  0.06194516  0.44641807
   0.16403336  0.82462168  0.09937498
   0.66403335  0.82462168  0.09937498
   0.26346849  0.97554384  0.36234968
   0.76346849  0.97554384  0.36234968
   0.14725433  0.68569610  0.19576453
   0.64725435  0.68569610  0.19576453
   0.25136615  0.99526342  0.24822080
   0.75136612  0.99526342  0.24822080
   0.00153900  0.45298441  0.46064717
   0.50153900  0.45298441  0.46064717
   0.05432079  0.55429521  0.34885182
   0.55432079  0.55429521  0.34885182
   0.15914738  0.15743266  0.49914848
   0.65914735  0.15743266  0.49914848
   0.15914738  0.65743272  0.99914851
   0.65914735  0.65743272  0.99914851
   0.40881621  0.84121916  0.50020359
   0.90881619  0.84121916  0.50020359
   0.40881621  0.34121922  0.00020359
   0.90881619  0.34121922  0.00020359
   0.14800524  0.25070362  0.34666895
   0.64800523  0.25070362  0.34666895
   0.14800524  0.75070362  0.84666898
   0.64800523  0.75070362  0.84666898
   0.39738979  0.75030241  0.34686470
   0.89738979  0.75030241  0.34686470
   0.39738979  0.25030241  0.84686470
   0.89738979  0.25030241  0.84686470
BiTiFeO                                 
           1
    10.998061   -0.004589    0.010718
    -0.002303    5.500945   -0.002439
     0.039330    0.044521   40.815969
   Bi   Ti   O    Fe
  40  24 120   8
Direct configuration=     3
   0.12605542  0.24598852  0.10543022
   0.62605543  0.24598852  0.10543022
   0.11937759  0.27322008  0.22047929
   0.61937757  0.27322008  0.22047929
   0.12605542  0.74598852  0.60543024
   0.62605543  0.74598852  0.60543024
   0.11937759  0.77322011  0.72047925
   0.61937757  0.77322011  0.72047925
   0.37692700  0.74991863  0.89198404
   0.87692697  0.74991863  0.89198404
   0.36741262  0.72106143  0.78187317
   0.86741262  0.72106143  0.78187317
   0.37692700  0.24991863  0.39198407
   0.87692697  0.24991863  0.39198407
   0.36741262  0.22106145  0.28187311
   0.86741262  0.22106145  0.28187311
   0.37402975  0.75349817  0.10561864
   0.87402975  0.75349817  0.10561864
   0.36805501  0.72891887  0.22037647
   0.86805501  0.72891887  0.22037647
   0.37402975  0.25349820  0.60561867
   0.87402975  0.25349820  0.60561867
   0.36805501  0.22891886  0.72037650
   0.86805501  0.22891886  0.72037650
   0.12589387  0.25003557  0.89173773
   0.62589386  0.25003557  0.89173773
   0.11592664  0.27696619  0.78201186
   0.61592663  0.27696619  0.78201186
   0.12589387  0.75003560  0.39173776
   0.62589386  0.75003560  0.39173776
   0.11592664  0.77696616  0.28201189
   0.61592663  0.77696616  0.28201189
   0.12173521  0.24260333  0.00067973
   0.62173523  0.24260333  0.00067973
   0.12173521  0.74260333  0.50067973
   0.62173523  0.74260333  0.50067973
   0.37202513  0.75835735  0.99868304
   0.87202516  0.75835735  0.99868304
   0.37202513  0.25835735  0.49868298
   0.87202516  0.25835735  0.49868298
   0.39793219  0.74983068  0.65341538
   0.89793219  0.74983068  0.65341538
   0.39793219  0.24983069  0.15341539
   0.89793219  0.24983069  0.15341539
   0.39592314  0.75342792  0.44868581
   0.89592317  0.75342792  0.44868581
   0.39592314  0.25342792  0.94868578
   0.89592317  0.25342792  0.94868578
   0.14533544  0.24746589  0.54977604
   0.64533547  0.24746589  0.54977604
   0.14738553  0.25052100  0.65293210
   0.64738552  0.25052100  0.65293210
   0.14738553  0.75052100  0.15293210
   0.64738552  0.75052100  0.15293210
   0.14533544  0.74746587  0.04977603
   0.64533547  0.74746587  0.04977603
   0.14493584  0.24485569  0.44901094
   0.64493587  0.24485569  0.44901094
   0.14493584  0.74485569  0.94901094
   0.64493587  0.74485569  0.94901094
   0.39554597  0.75412389  0.54995804
   0.89554600  0.75412389  0.54995804
   0.39554597  0.25412389  0.04995803
   0.89554600  0.25412389  0.04995803
   0.30342771  0.55332706  0.05593485
   0.80342774  0.55332706  0.05593485
   0.15952643  0.31961615  0.40426746
   0.65952640  0.31961615  0.40426746
   0.26372988  0.47268213  0.13768780
   0.76372991  0.47268213  0.13768780
   0.14696085  0.18375528  0.30299663
   0.64696088  0.18375528  0.30299663
   0.25128212  0.49462136  0.25092748
   0.75128215  0.49462136  0.25092748
   0.00238130  0.96354362  0.03819224
   0.50238130  0.96354362  0.03819224
   0.05231044  0.05421819  0.15055671
   0.55231042  0.05421819  0.15055671
   0.30342771  0.05332707  0.55593483
   0.80342774  0.05332707  0.55593483
   0.15952643  0.81961615  0.90426746
   0.65952640  0.81961615  0.90426746
   0.26372988  0.97268216  0.63768778
   0.76372991  0.97268216  0.63768778
   0.14696085  0.68375525  0.80299663
   0.64696088  0.68375525  0.80299663
   0.25128212  0.99462139  0.75092751
   0.75128215  0.99462139  0.75092751
   0.00238130  0.46354365  0.53819223
   0.50238130  0.46354365  0.53819223
   0.05231044  0.55421824  0.65055674
   0.55231042  0.55421824  0.65055674
   0.05079591  0.44453225  0.94506452
   0.55079593  0.44453225  0.94506452
   0.41030404  0.67797153  0.59688107
   0.91030401  0.67797153  0.59688107
   0.01401103  0.52766900  0.86274825
   0.51401101  0.52766900  0.86274825
   0.39550972  0.81274172  0.69627109
   0.89550972  0.81274172  0.69627109
   0.00142922  0.50431788  0.74819599
   0.50142924  0.50431788  0.74819599
   0.25500179  0.04084929  0.96196947
   0.75500179  0.04084929  0.96196947
   0.30260065  0.94661951  0.84982498
   0.80260062  0.94661951  0.84982498
   0.05079591  0.94453228  0.44506449
   0.55079593  0.94453228  0.44506449
   0.41030404  0.17797153  0.09688109
   0.91030401  0.17797153  0.09688109
   0.01401103  0.02766902  0.36274825
   0.51401101  0.02766902  0.36274825
   0.39550972  0.31274172  0.19627109
   0.89550972  0.31274172  0.19627109
   0.00142922  0.00431791  0.24819600
   0.50142924  0.00431791  0.24819600
   0.25500179  0.54084931  0.46196944
   0.75500179  0.54084931  0.46196944
   0.30260065  0.44661957  0.34982501
   0.80260062  0.44661957  0.34982501
   0.05462882  0.43277258  0.05425302
   0.55462882  0.43277258  0.05425302
   0.41174297  0.68013713  0.40353448
   0.91174300  0.68013713  0.40353448
   0.01327185  0.52406151  0.13783599
   0.51327182  0.52406151  0.13783599
   0.39844387  0.81683564  0.30327718
   0.89844384  0.81683564  0.30327718
   0.00122148  0.50529698  0.25081561
   0.50122147  0.50529698  0.25081561
   0.25306210  0.04991792  0.03963489
   0.75306210  0.04991792  0.03963489
   0.30390464  0.94477557  0.15123483
   0.80390464  0.94477557  0.15123483
   0.05462882  0.93277255  0.55425306
   0.55462882  0.93277255  0.55425306
   0.41174297  0.18013715  0.90353451
   0.91174300  0.18013715  0.90353451
   0.01327185  0.02406148  0.63783596
   0.51327182  0.02406148  0.63783596
   0.39844387  0.31683567  0.80327715
   0.89844384  0.31683567  0.80327715
   0.00122148  0.00529699  0.75081561
   0.50122147  0.00529699  0.75081561
   0.25306210  0.54991793  0.53963486
   0.75306210  0.54991793  0.53963486
   0.30390464  0.44477557  0.65123486
   0.80390464  0.44477557  0.65123486
   0.30486110  0.56000457  0.94657246
   0.80486110  0.56000457  0.94657246
   0.16378393  0.32337733  0.59856926
   0.66378392  0.32337733  0.59856926
   0.26364841  0.47544162  0.86253398
   0.76364841  0.47544162  0.86253398
   0.14691915  0.18612522  0.69593359
   0.64691916  0.18612522  0.69593359
   0.25141878  0.49567983  0.74826432
   0.75141875  0.49567983  0.74826432
   0.00217863  0.95419673  0.96084182
   0.50217863  0.95419673  0.96084182
   0.05397508  0.05434360  0.84910436
   0.55397507  0.05434360  0.84910436
   0.30486110  0.06000453  0.44657252
   0.80486110  0.06000453  0.44657252
   0.16378393  0.82337733  0.09856928
   0.66378392  0.82337733  0.09856928
   0.26364841  0.97544159  0.36253395
   0.76364841  0.97544159  0.36253395
   0.14691915  0.68612522  0.19593354
   0.64691916  0.68612522  0.19593354
   0.25141878  0.99567983  0.24826429
   0.75141875  0.99567983  0.24826429
   0.00217863  0.45419676  0.46084182
   0.50217863  0.45419676  0.46084182
   0.05397508  0.55434363  0.34910442
   0.55397507  0.55434363  0.34910442
   0.15906697  0.15918268  0.49971564
   0.65906694  0.15918268  0.49971564
   0.15906697  0.65918274  0.99971566
   0.65906694  0.65918274  0.99971566
   0.40922928  0.84022399  0.50028970
   0.90922925  0.84022399  0.50028970
   0.40922928  0.34022405  0.00028970
   0.90922925  0.34022405  0.00028970
   0.14771775  0.25045179  0.34648127
   0.64771773  0.25045179  0.34648127
   0.14771775  0.75045179  0.84648130
   0.64771773  0.75045179  0.84648130
   0.39715756  0.74991694  0.34693645
   0.89715756  0.74991694  0.34693645
   0.39715756  0.24991694  0.84693645
   0.89715756  0.24991694  0.84693645
BiTiFeO                                 
           1
    10.964820   -0.003332    0.022086
    -0.001675    5.486744   -0.003920
     0.081543    0.033377   40.668488
   Bi   Ti   O    Fe
  40  24 120   8
Direct configuration=     4
   0.12601558  0.24582820  0.10537135
   0.62601559  0.24582820  0.10537135
   0.11928157  0.27342866  0.22039279
   0.61928154  0.27342866  0.22039279
   0.12601558  0.74582820  0.60537137
   0.62601559  0.74582820  0.60537137
   0.11928157  0.77342869  0.72039275
   0.61928154  0.77342869  0.72039275
   0.37683438  0.75013114  0.89210642
   0.87683435  0.75013114  0.89210642
   0.36753452  0.72126009  0.78180874
   0.86753452  0.72126009  0.78180874
   0.37683438  0.25013114  0.39210645
   0.87683435  0.25013114  0.39210645
   0.36753452  0.22126010  0.28180868
   0.86753452  0.22126010  0.28180868
   0.37388912  0.75359706  0.10556005
   0.87388912  0.75359706  0.10556005
   0.36793627  0.72875858  0.22028990
   0.86793627  0.72875858  0.22028990
   0.37388912  0.25359709  0.60556007
   0.87388912  0.25359709  0.60556007
   0.36793627  0.22875856  0.72028993
   0.86793627  0.22875856  0.72028993
   0.12572812  0.24983953  0.89186257
   0.62572811  0.24983953  0.89186257
   0.11604414  0.27672687  0.78194548
   0.61604413  0.27672687  0.78194548
   0.12572812  0.74983956  0.39186260
   0.62572811  0.74983956  0.39186260
   0.11604414  0.77672684  0.28194551
   0.61604413  0.77672684  0.28194551
   0.12171602  0.24258907  0.00081816
   0.62171605  0.24258907  0.00081816
   0.12171602  0.74258907  0.50081816
   0.62171605  0.74258907  0.50081816
   0.37199148  0.75841672  0.99881250
   0.87199151  0.75841672  0.99881250
   0.37199148  0.25841672  0.49881244
   0.87199151  0.25841672  0.49881244
   0.39795032  0.74965696  0.65328679
   0.89795032  0.74965696  0.65328679
   0.39795032  0.24965698  0.15328680
   0.89795032  0.24965698  0.15328680
   0.39586839  0.75349886  0.44877913
   0.89586842  0.75349886  0.44877913
   0.39586839  0.25349886  0.94877910
   0.89586842  0.25349886  0.94877910
   0.14528549  0.24752519  0.54978202
   0.64528552  0.24752519  0.54978202
   0.14738331  0.25076630  0.65277026
   0.64738330  0.25076630  0.65277026
   0.14738331  0.75076630  0.15277026
   0.64738330  0.75076630  0.15277026
   0.14528549  0.74752517  0.04978201
   0.64528552  0.74752517  0.04978201
   0.14486663  0.24470889  0.44914048
   0.64486666  0.24470889  0.44914048
   0.14486663  0.74470889  0.94914048
   0.64486666  0.74470889  0.94914048
   0.39557381  0.75414497  0.54998383
   0.89557384  0.75414497  0.54998383
   0.39557381  0.25414497  0.04998383
   0.89557384  0.25414497  0.04998383
   0.30371199  0.55308022  0.05596251
   0.80371202  0.55308022  0.05596251
   0.15963959  0.31986785  0.40415792
   0.65963956  0.31986785  0.40415792
   0.26377908  0.47264225  0.13771915
   0.76377911  0.47264225  0.13771915
   0.14689053  0.18394330  0.30304171
   0.64689056  0.18394330  0.30304171
   0.25128738  0.49465013  0.25094957
   0.75128741  0.49465013  0.25094957
   0.00205191  0.96406079  0.03813071
   0.50205191  0.96406079  0.03813071
   0.05228658  0.05420846  0.15060487
   0.55228655  0.05420846  0.15060487
   0.30371199  0.05308022  0.55596249
   0.80371202  0.05308022  0.55596249
   0.15963959  0.81986785  0.90415792
   0.65963956  0.81986785  0.90415792
   0.26377908  0.97264228  0.63771914
   0.76377911  0.97264228  0.63771914
   0.14689053  0.68394327  0.80304171
   0.64689056  0.68394327  0.80304171
   0.25128738  0.99465016  0.75094960
   0.75128741  0.99465016  0.75094960
   0.00205191  0.46406082  0.53813070
   0.50205191  0.46406082  0.53813070
   0.05228658  0.55420851  0.65060490
   0.55228655  0.55420851  0.65060490
   0.05077046  0.44449282  0.94495952
   0.55077048  0.44449282  0.94495952
   0.41031586  0.67786942  0.59692891
   0.91031583  0.67786942  0.59692891
   0.01401388  0.52771356  0.86271922
   0.51401387  0.52771356  0.86271922
   0.39555919  0.81302700  0.69637815
   0.89555919  0.81302700  0.69637815
   0.00142643  0.50435224  0.74821815
   0.50142645  0.50435224  0.74821815
   0.25502292  0.04096794  0.96191972
   0.75502292  0.04096794  0.96191972
   0.30256993  0.94661917  0.84977511
   0.80256990  0.94661917  0.84977511
   0.05077046  0.94449285  0.44495949
   0.55077048  0.94449285  0.44495949
   0.41031586  0.17786942  0.09692893
   0.91031583  0.17786942  0.09692893
   0.01401388  0.02771358  0.36271922
   0.51401387  0.02771358  0.36271922
   0.39555919  0.31302700  0.19637815
   0.89555919  0.31302700  0.19637815
   0.00142643  0.00435227  0.24821816
   0.50142645  0.00435227  0.24821816
   0.25502292  0.54096796  0.46191969
   0.75502292  0.54096796  0.46191969
   0.30256993  0.44661923  0.34977514
   0.80256990  0.44661923  0.34977514
   0.05456360  0.43183306  0.05425339
   0.55456359  0.43183306  0.05425339
   0.41194591  0.67986923  0.40340949
   0.91194594  0.67986923  0.40340949
   0.01327210  0.52400484  0.13787324
   0.51327207  0.52400484  0.13787324
   0.39837772  0.81667518  0.30331567
   0.89837769  0.81667518  0.30331567
   0.00123315  0.50524960  0.25083778
   0.50123314  0.50524960  0.25083778
   0.25316968  0.05050437  0.03959833
   0.75316968  0.05050437  0.03959833
   0.30394806  0.94487718  0.15129250
   0.80394806  0.94487718  0.15129250
   0.05456360  0.93183303  0.55425343
   0.55456359  0.93183303  0.55425343
   0.41194591  0.17986924  0.90340952
   0.91194594  0.17986924  0.90340952
   0.01327210  0.02400481  0.63787321
   0.51327207  0.02400481  0.63787321
   0.39837772  0.31667521  0.80331564
   0.89837769  0.31667521  0.80331564
   0.00123315  0.00524961  0.75083778
   0.50123314  0.00524961  0.75083778
   0.25316968  0.55050438  0.53959830
   0.75316968  0.55050438  0.53959830
   0.30394806  0.44487718  0.65129253
   0.80394806  0.44487718  0.65129253
   0.30498970  0.56012343  0.94649569
   0.80498970  0.56012343  0.94649569
   0.16393408  0.32366217  0.59873891
   0.66393406  0.32366217  0.59873891
   0.26361756  0.47548074  0.86249756
   0.76361756  0.47548074  0.86249756
   0.14698907  0.18581000  0.69604883
   0.64698908  0.18581000  0.69604883
   0.25141730  0.49565029  0.74828629
   0.75141727  0.49565029  0.74828629
   0.00211396  0.95401549  0.96077220
   0.50211395  0.95401549  0.96077220
   0.05401441  0.05422962  0.84904286
   0.55401441  0.05422962  0.84904286
   0.30498970  0.06012338  0.44649575
   0.80498970  0.06012338  0.44649575
   0.16393408  0.82366217  0.09873892
   0.66393406  0.82366217  0.09873892
   0.26361756  0.97548071  0.36249753
   0.76361756  0.97548071  0.36249753
   0.14698907  0.68581000  0.19604878
   0.64698908  0.68581000  0.19604878
   0.25141730  0.99565029  0.24828626
   0.75141727  0.99565029  0.24828626
   0.00211396  0.45401552  0.46077220
   0.50211395  0.45401552  0.46077220
   0.05401441  0.55422964  0.34904292
   0.55401441  0.55422964  0.34904292
   0.15908160  0.15883616  0.49956215
   0.65908157  0.15883616  0.49956215
   0.15908160  0.65883622  0.99956218
   0.65908157  0.65883622  0.99956218
   0.40918682  0.84044543  0.50022218
   0.90918680  0.84044543  0.50022218
   0.40918682  0.34044549  0.00022218
   0.90918680  0.34044549  0.00022218
   0.14774538  0.25048492  0.34655194
   0.64774536  0.25048492  0.34655194
   0.14774538  0.75048492  0.84655197
   0.64774536  0.75048492  0.84655197