BiTiFeO                                 
           1
    10.962310   -0.002795   -0.004873
    -0.001401    5.473326   -0.000162
    -0.018174    0.060941   40.482751
   Bi   Ti   O    Fe
  40  24 120   8
Direct configuration=     1
   0.12581734  0.24552768  0.10456018
   0.62581736  0.24552768  0.10456018
   0.11884221  0.27533320  0.21951799
   0.61884218  0.27533320  0.21951799
   0.12581734  0.74552768  0.60456020
   0.62581736  0.74552768  0.60456020
   0.11884221  0.77533323  0.71951795
   0.61884218  0.77533323  0.71951795
   0.37581733  0.75447232  0.89543980
   0.87581730  0.75447232  0.89543980
   0.36884218  0.72466677  0.78048205
   0.86884218  0.72466677  0.78048205
   0.37581733  0.25447232  0.39543983
   0.87581730  0.25447232  0.39543983
   0.36884218  0.22466679  0.28048199
   0.86884218  0.22466679  0.28048199
   0.37389028  0.75425547  0.10488448
   0.87389028  0.75425547  0.10488448
   0.36734301  0.72707325  0.21940872
   0.86734301  0.72707325  0.21940872
   0.37389028  0.25425550  0.60488451
   0.87389028  0.25425550  0.60488451
   0.36734301  0.22707324  0.71940875
   0.86734301  0.22707324  0.71940875
   0.12389029  0.24574450  0.89511549
   0.62389028  0.24574450  0.89511549
   0.11734302  0.27292678  0.78059125
   0.61734301  0.27292678  0.78059125
   0.12389029  0.74574453  0.39511553
   0.62389028  0.74574453  0.39511553
   0.11734302  0.77292675  0.28059128
   0.61734301  0.77292675  0.28059128
   0.12124083  0.24192810  0.00106251
   0.62124085  0.24192810  0.00106251
   0.12124083  0.74192810  0.50106251
   0.62124085  0.74192810  0.50106251
   0.37124082  0.75807190  0.99893749
   0.87124085  0.75807190  0.99893749
   0.37124082  0.25807190  0.49893743
   0.87124085  0.25807190  0.49893743
   0.39737403  0.74971396  0.34751427
   0.89737403  0.74971396  0.34751427
   0.39737403  0.24971396  0.84751427
   0.89737403  0.24971396  0.84751427
   0.39778417  0.74996662  0.65309596
   0.89778417  0.74996662  0.65309596
   0.39778417  0.24996664  0.15309598
   0.89778417  0.24996664  0.15309598
   0.39509413  0.75150693  0.45036468
   0.89509416  0.75150693  0.45036468
   0.39509413  0.25150693  0.95036465
   0.89509416  0.25150693  0.95036465
   0.14509413  0.24849309  0.54963535
   0.64509416  0.24849309  0.54963535
   0.14737405  0.25028604  0.65248573
   0.64737403  0.25028604  0.65248573
   0.14737405  0.75028604  0.15248573
   0.64737403  0.75028604  0.15248573
   0.14509413  0.74849307  0.04963534
   0.64509416  0.74849307  0.04963534
   0.14572605  0.24496144  0.45021892
   0.64572608  0.24496144  0.45021892
   0.14572605  0.74496144  0.95021892
   0.64572608  0.74496144  0.95021892
   0.30398616  0.55333757  0.05623510
   0.80398619  0.55333757  0.05623510
   0.16037145  0.32244712  0.40269166
   0.66037142  0.32244712  0.40269166
   0.26384732  0.47232899  0.13806446
   0.76384735  0.47232899  0.13806446
   0.14598581  0.18621907  0.30358261
   0.64598584  0.18621907  0.30358261
   0.25139269  0.49499974  0.25136027
   0.75139272  0.49499974  0.25136027
   0.00183105  0.96418035  0.03809405
   0.50183105  0.96418035  0.03809405
   0.05208983  0.05360783  0.15095773
   0.55208981  0.05360783  0.15095773
   0.30398616  0.05333758  0.55623508
   0.80398619  0.05333758  0.55623508
   0.16037145  0.82244712  0.90269166
   0.66037142  0.82244712  0.90269166
   0.26384732  0.97232902  0.63806444
   0.76384735  0.97232902  0.63806444
   0.14598581  0.68621904  0.80358261
   0.64598584  0.68621904  0.80358261
   0.25139269  0.99499977  0.75136030
   0.75139272  0.99499977  0.75136030
   0.00183105  0.46418038  0.53809404
   0.50183105  0.46418038  0.53809404
   0.05208983  0.55360788  0.65095776
   0.55208981  0.55360788  0.65095776
   0.05398618  0.44666240  0.94376492
   0.55398619  0.44666240  0.94376492
   0.41037145  0.67755288  0.59730834
   0.91037142  0.67755288  0.59730834
   0.01384731  0.52767098  0.86193556
   0.51384729  0.52767098  0.86193556
   0.39598584  0.81378096  0.69641739
   0.89598584  0.81378096  0.69641739
   0.00139270  0.50500023  0.74863970
   0.50139272  0.50500023  0.74863970
   0.25183105  0.03581963  0.96190596
   0.75183105  0.03581963  0.96190596
   0.30208984  0.94639212  0.84904224
   0.80208981  0.94639212  0.84904224
   0.05398618  0.94666243  0.44376490
   0.55398619  0.94666243  0.44376490
   0.41037145  0.17755288  0.09730835
   0.91037142  0.17755288  0.09730835
   0.01384731  0.02767100  0.36193556
   0.51384729  0.02767100  0.36193556
   0.39598584  0.31378096  0.19641739
   0.89598584  0.31378096  0.19641739
   0.00139270  0.00500026  0.24863972
   0.50139272  0.00500026  0.24863972
   0.25183105  0.53581965  0.46190593
   0.75183105  0.53581965  0.46190593
   0.30208984  0.44639218  0.34904227
   0.80208981  0.44639218  0.34904227
   0.05373246  0.42657372  0.05429961
   0.55373246  0.42657372  0.05429961
   0.41462371  0.67528647  0.40033671
   0.91462374  0.67528647  0.40033671
   0.01342812  0.52419931  0.13827106
   0.51342809  0.52419931  0.13827106
   0.39733556  0.81472349  0.30391791
   0.89733553  0.81472349  0.30391791
   0.00137807  0.50483209  0.25127208
   0.50137806  0.50483209  0.25127208
   0.25423092  0.05460011  0.03958693
   0.75423092  0.05460011  0.03958693
   0.30389983  0.94555801  0.15167758
   0.80389983  0.94555801  0.15167758
   0.05373246  0.92657369  0.55429965
   0.55373246  0.92657369  0.55429965
   0.41462371  0.17528649  0.90033674
   0.91462374  0.17528649  0.90033674
   0.01342812  0.02419928  0.63827103
   0.51342809  0.02419928  0.63827103
   0.39733556  0.31472352  0.80391788
   0.89733553  0.31472352  0.80391788
   0.00137807  0.00483209  0.75127208
   0.50137806  0.00483209  0.75127208
   0.25423092  0.55460012  0.53958690
   0.75423092  0.55460012  0.53958690
   0.30389983  0.44555801  0.65167761
   0.80389983  0.44555801  0.65167761
   0.30373246  0.57342631  0.94570035
   0.80373246  0.57342631  0.94570035
   0.16462369  0.32471353  0.59966326
   0.66462368  0.32471353  0.59966326
   0.26342809  0.47580072  0.86172897
   0.76342809  0.47580072  0.86172897
   0.14733557  0.18527651  0.69608212
   0.64733559  0.18527651  0.69608212
   0.25137809  0.49516791  0.74872792
   0.75137806  0.49516791  0.74872792
   0.00423092  0.94539988  0.96041310
   0.50423092  0.94539988  0.96041310
   0.05389983  0.05444197  0.84832239
   0.55389983  0.05444197  0.84832239
   0.30373246  0.07342626  0.44570041
   0.80373246  0.07342626  0.44570041
   0.16462369  0.82471353  0.09966327
   0.66462368  0.82471353  0.09966327
   0.26342809  0.97580069  0.36172894
   0.76342809  0.97580069  0.36172894
   0.14733557  0.68527651  0.19608207
   0.64733559  0.68527651  0.19608207
   0.25137809  0.99516791  0.24872789
   0.75137806  0.99516791  0.24872789
   0.00423092  0.44539991  0.46041310
   0.50423092  0.44539991  0.46041310
   0.05389983  0.55444199  0.34832245
   0.55389983  0.55444199  0.34832245
   0.15875485  0.15670252  0.49889919
   0.65875483  0.15670252  0.49889919
   0.15875485  0.65670258  0.99889922
   0.65875483  0.65670258  0.99889922
   0.40875485  0.84329742  0.50110078
   0.90875483  0.84329742  0.50110078
   0.40875485  0.34329748  0.00110078
   0.90875483  0.34329748  0.00110078
   0.14778419  0.25003338  0.34690401
   0.64778417  0.25003338  0.34690401
   0.14778419  0.75003338  0.84690404
   0.64778417  0.75003338  0.84690404
   0.39572605  0.75503856  0.54978108
   0.89572608  0.75503856  0.54978108
   0.39572605  0.25503856  0.04978108
   0.89572608  0.25503856  0.04978108
BiTiFeO                                 
           1
    11.005363   -0.002608   -0.001408
    -0.001309    5.497542   -0.004579
    -0.005232    0.028556   40.985675
   Bi   Ti   O    Fe
  40  24 120   8
Direct configuration=     2
   0.12472357  0.24701805  0.10525371
   0.62472359  0.24701805  0.10525371
   0.11902456  0.27364501  0.22045740
   0.61902454  0.27364501  0.22045740
   0.12472357  0.74701805  0.60525372
   0.62472359  0.74701805  0.60525372
   0.11902456  0.77364504  0.72045736
   0.61902454  0.77364504  0.72045736
   0.37613594  0.75089334  0.89213726
   0.87613591  0.75089334  0.89213726
   0.36742762  0.72437943  0.78135695
   0.86742762  0.72437943  0.78135695
   0.37613594  0.25089334  0.39213729
   0.87613591  0.25089334  0.39213729
   0.36742762  0.22437945  0.28135689
   0.86742762  0.22437945  0.28135689
   0.37540644  0.75474663  0.10549142
   0.87540644  0.75474663  0.10549142
   0.36779755  0.72848310  0.22022169
   0.86779755  0.72848310  0.22022169
   0.37540644  0.25474666  0.60549145
   0.87540644  0.25474666  0.60549145
   0.36779755  0.22848309  0.72022172
   0.86779755  0.22848309  0.72022172
   0.12604982  0.24802313  0.89186719
   0.62604981  0.24802313  0.89186719
   0.11782787  0.27714207  0.78154938
   0.61782786  0.27714207  0.78154938
   0.12604982  0.74802316  0.39186722
   0.62604981  0.74802316  0.39186722
   0.11782787  0.77714204  0.28154941
   0.61782786  0.77714204  0.28154941
   0.12132060  0.24118962  0.00204541
   0.62132062  0.24118962  0.00204541
   0.12132060  0.74118962  0.50204541
   0.62132062  0.74118962  0.50204541
   0.37224548  0.75767703  0.99982837
   0.87224551  0.75767703  0.99982837
   0.37224548  0.25767703  0.49982831
   0.87224551  0.25767703  0.49982831
   0.39805821  0.74939391  0.34622144
   0.89805821  0.74939391  0.34622144
   0.39805821  0.24939391  0.84622144
   0.89805821  0.24939391  0.84622144
   0.39777008  0.75029723  0.65376364
   0.89777008  0.75029723  0.65376364
   0.39777008  0.25029724  0.15376365
   0.89777008  0.25029724  0.15376365
   0.39574396  0.75460310  0.44912024
   0.89574399  0.75460310  0.44912024
   0.39574396  0.25460310  0.94912021
   0.89574399  0.25460310  0.94912021
   0.14649045  0.24534805  0.55054197
   0.64649048  0.24534805  0.55054197
   0.14750196  0.24869157  0.65410792
   0.64750194  0.24869157  0.65410792
   0.14750196  0.74869157  0.15410792
   0.64750194  0.74869157  0.15410792
   0.14649045  0.74534803  0.05054196
   0.64649048  0.74534803  0.05054196
   0.14541974  0.24614692  0.44791965
   0.64541977  0.24614692  0.44791965
   0.14541974  0.74614692  0.94791965
   0.64541977  0.74614692  0.94791965
   0.29930923  0.56145908  0.05545208
   0.79930926  0.56145908  0.05545208
   0.15977210  0.31977086  0.40491079
   0.65977207  0.31977086  0.40491079
   0.26311268  0.47335385  0.13778402
   0.76311271  0.47335385  0.13778402
   0.14663405  0.18382294  0.30313454
   0.64663408  0.18382294  0.30313454
   0.25158799  0.49542100  0.25082525
   0.75158802  0.49542100  0.25082525
   0.00656180  0.95552320  0.03801821
   0.50656180  0.95552320  0.03801821
   0.05278702  0.05355618  0.15055914
   0.55278700  0.05355618  0.15055914
   0.29930923  0.06145909  0.55545206
   0.79930926  0.06145909  0.55545206
   0.15977210  0.81977086  0.90491079
   0.65977207  0.81977086  0.90491079
   0.26311268  0.97335388  0.63778400
   0.76311271  0.97335388  0.63778400
   0.14663405  0.68382291  0.80313454
   0.64663408  0.68382291  0.80313454
   0.25158799  0.99542103  0.75082528
   0.75158802  0.99542103  0.75082528
   0.00656180  0.45552323  0.53801821
   0.50656180  0.45552323  0.53801821
   0.05278702  0.55355623  0.65055917
   0.55278700  0.55355623  0.65055917
   0.04940042  0.44275350  0.94485084
   0.54940044  0.44275350  0.94485084
   0.41114351  0.67699441  0.59696746
   0.91114348  0.67699441  0.59696746
   0.01262291  0.52685274  0.86311167
   0.51262290  0.52685274  0.86311167
   0.39582103  0.81208777  0.69565070
   0.89582103  0.81208777  0.69565070
   0.00128041  0.50435203  0.74809931
   0.50128043  0.50435203  0.74809931
   0.25573129  0.04246733  0.96177569
   0.75573129  0.04246733  0.96177569
   0.30398565  0.94640845  0.85010594
   0.80398562  0.94640845  0.85010594
   0.04940042  0.94275353  0.44485081
   0.54940044  0.94275353  0.44485081
   0.41114351  0.17699441  0.09696747
   0.91114348  0.17699441  0.09696747
   0.01262291  0.02685276  0.36311167
   0.51262290  0.02685276  0.36311167
   0.39582103  0.31208777  0.19565070
   0.89582103  0.31208777  0.19565070
   0.00128041  0.00435206  0.24809933
   0.50128043  0.00435206  0.24809933
   0.25573129  0.54246735  0.46177566
   0.75573129  0.54246735  0.46177566
   0.30398565  0.44640851  0.35010597
   0.80398562  0.44640851  0.35010597
   0.05735356  0.44106088  0.05372976
   0.55735355  0.44106088  0.05372976
   0.41237337  0.68002238  0.40383253
   0.91237340  0.68002238  0.40383253
   0.01372727  0.52515919  0.13786673
   0.51372725  0.52515919  0.13786673
   0.39722003  0.81422933  0.30396689
   0.89722000  0.81422933  0.30396689
   0.00090931  0.50486866  0.25068156
   0.50090930  0.50486866  0.25068156
   0.25025592  0.04378807  0.03921195
   0.75025592  0.04378807  0.03921195
   0.30347330  0.94389608  0.15121182
   0.80347330  0.94389608  0.15121182
   0.05735356  0.94106085  0.55372980
   0.55735355  0.94106085  0.55372980
   0.41237337  0.18002239  0.90383256
   0.91237340  0.18002239  0.90383256
   0.01372727  0.02515916  0.63786670
   0.51372725  0.02515916  0.63786670
   0.39722003  0.31422936  0.80396686
   0.89722000  0.31422936  0.80396686
   0.00090931  0.00486867  0.75068156
   0.50090930  0.00486867  0.75068156
   0.25025592  0.54378808  0.53921192
   0.75025592  0.54378808  0.53921192
   0.30347330  0.44389608  0.65121185
   0.80347330  0.44389608  0.65121185
   0.30617563  0.55853807  0.94655210
   0.80617563  0.55853807  0.94655210
   0.16270782  0.32142593  0.59733738
   0.66270780  0.32142593  0.59733738
   0.26381788  0.47396637  0.86290552
   0.76381788  0.47396637  0.86290552
   0.14700409  0.18731601  0.69511826
   0.64700410  0.18731601  0.69511826
   0.25161264  0.49430995  0.74819641
   0.75161261  0.49430995  0.74819641
   0.00101850  0.95541997  0.96055268
   0.50101850  0.95541997  0.96055268
   0.05386363  0.05910569  0.84948999
   0.55386363  0.05910569  0.84948999
   0.30617563  0.05853803  0.44655216
   0.80617563  0.05853803  0.44655216
   0.16270782  0.82142593  0.09733739
   0.66270780  0.82142593  0.09733739
   0.26381788  0.97396634  0.36290549
   0.76381788  0.97396634  0.36290549
   0.14700409  0.68731601  0.19511821
   0.64700410  0.68731601  0.19511821
   0.25161264  0.99430995  0.24819638
   0.75161261  0.99430995  0.24819638
   0.00101850  0.45542000  0.46055268
   0.50101850  0.45542000  0.46055268
   0.05386363  0.55910572  0.34949005
   0.55386363  0.55910572  0.34949005
   0.15873069  0.15956953  0.50010988
   0.65873066  0.15956953  0.50010988
   0.15873069  0.65956959  1.00010991
   0.65873066  0.65956959  1.00010991
   0.40897710  0.84099413  0.49934226
   0.90897707  0.84099413  0.49934226
   0.40897710  0.34099419 -0.00065774
   0.90897707  0.34099419 -0.00065774
   0.14730179  0.24933441  0.34586420
   0.64730177  0.24933441  0.34586420
   0.14730179  0.74933441  0.84586423
   0.64730177  0.74933441  0.84586423
   0.39478338  0.75449363  0.55090074
   0.89478341  0.75449363  0.55090074
   0.39478338  0.25449363  0.05090073
   0.89478341  0.25449363  0.05090073
BiTiFeO                                 
           1
    10.997081   -0.002908    0.005952
    -0.001462    5.491769   -0.006062
     0.022170    0.017406   40.909821
   Bi   Ti   O    Fe
  40  24 120   8
Direct configuration=     3
   0.12484781  0.24701497  0.10487337
   0.62484782  0.24701497  0.10487337
   0.11910704  0.27302658  0.22017707
   0.61910702  0.27302658  0.22017707
   0.12484781  0.74701497  0.60487339
   0.62484782  0.74701497  0.60487339
   0.11910704  0.77302661  0.72017703
   0.61910702  0.77302661  0.72017703
   0.37682484  0.75045616  0.89289003
   0.87682481  0.75045616  0.89289003
   0.36712913  0.72526792  0.78132798
   0.86712913  0.72526792  0.78132798
   0.37682484  0.25045616  0.39289006
   0.87682481  0.25045616  0.39289006
   0.36712913  0.22526793  0.28132792
   0.86712913  0.22526793  0.28132792
   0.37554254  0.75471423  0.10511250
   0.87554254  0.75471423  0.10511250
   0.36834793  0.72877234  0.21988185
   0.86834793  0.72877234  0.21988185
   0.37554254  0.25471426  0.60511252
   0.87554254  0.25471426  0.60511252
   0.36834793  0.22877232  0.71988188
   0.86834793  0.22877232  0.71988188
   0.12648324  0.24878488  0.89262803
   0.62648324  0.24878488  0.89262803
   0.11798610  0.27747340  0.78154940
   0.61798610  0.27747340  0.78154940
   0.12648324  0.74878491  0.39262806
   0.62648324  0.74878491  0.39262806
   0.11798610  0.77747337  0.28154943
   0.61798610  0.77747337  0.28154943
   0.12132669  0.24122258  0.00199595
   0.62132671  0.24122258  0.00199595
   0.12132669  0.74122258  0.50199595
   0.62132671  0.74122258  0.50199595
   0.37227772  0.75762824  0.99989682
   0.87227775  0.75762824  0.99989682
   0.37227772  0.25762824  0.49989676
   0.87227775  0.25762824  0.49989676
   0.39798057  0.74909280  0.34722739
   0.89798057  0.74909280  0.34722739
   0.39798057  0.24909280  0.84722739
   0.89798057  0.24909280  0.84722739
   0.39766488  0.74931245  0.65267132
   0.89766488  0.74931245  0.65267132
   0.39766488  0.24931246  0.15267134
   0.89766488  0.24931246  0.15267134
   0.39564688  0.75374036  0.44987608
   0.89564691  0.75374036  0.44987608
   0.39564688  0.25374036  0.94987605
   0.89564691  0.25374036  0.94987605
   0.14644498  0.24648345  0.55010171
   0.64644501  0.24648345  0.55010171
   0.14763577  0.25040398  0.65248982
   0.64763575  0.25040398  0.65248982
   0.14763577  0.75040398  0.15248982
   0.64763575  0.75040398  0.15248982
   0.14644498  0.74648344  0.05010170
   0.64644501  0.74648344  0.05010170
   0.14491014  0.24527746  0.44938557
   0.64491017  0.24527746  0.44938557
   0.14491014  0.74527746  0.94938557
   0.64491017  0.74527746  0.94938557
   0.30038983  0.56025636  0.05546480
   0.80038986  0.56025636  0.05546480
   0.15981295  0.32083678  0.40382125
   0.65981292  0.32083678  0.40382125
   0.26319383  0.47333710  0.13797281
   0.76319386  0.47333710  0.13797281
   0.14678950  0.18295585  0.30268748
   0.64678953  0.18295585  0.30268748
   0.25159777  0.49523611  0.25103817
   0.75159780  0.49523611  0.25103817
   0.00631093  0.95612104  0.03819315
   0.50631093  0.95612104  0.03819315
   0.05260966  0.05318474  0.15075890
   0.55260963  0.05318474  0.15075890
   0.30038983  0.06025636  0.55546478
   0.80038986  0.06025636  0.55546478
   0.15981295  0.82083678  0.90382125
   0.65981292  0.82083678  0.90382125
   0.26319383  0.97333713  0.63797280
   0.76319386  0.97333713  0.63797280
   0.14678950  0.68295582  0.80268748
   0.64678953  0.68295582  0.80268748
   0.25159777  0.99523614  0.75103820
   0.75159780  0.99523614  0.75103820
   0.00631093  0.45612107  0.53819314
   0.50631093  0.45612107  0.53819314
   0.05260966  0.55318480  0.65075893
   0.55260963  0.55318480  0.65075893
   0.05036889  0.44412969  0.94471069
   0.55036891  0.44412969  0.94471069
   0.41132990  0.67711078  0.59719389
   0.91132987  0.67711078  0.59719389
   0.01289913  0.52676652  0.86279770
   0.51289911  0.52676652  0.86279770
   0.39570499  0.81320689  0.69659597
   0.89570499  0.81320689  0.69659597
   0.00115360  0.50385225  0.74825098
   0.50115362  0.50385225  0.74825098
   0.25539222  0.04169976  0.96159240
   0.75539222  0.04169976  0.96159240
   0.30323652  0.94754020  0.84976441
   0.80323649  0.94754020  0.84976441
   0.05036889  0.94412972  0.44471066
   0.55036891  0.94412972  0.44471066
   0.41132990  0.17711078  0.09719390
   0.91132987  0.17711078  0.09719390
   0.01289913  0.02676654  0.36279770
   0.51289911  0.02676654  0.36279770
   0.39570499  0.31320689  0.19659597
   0.89570499  0.31320689  0.19659597
   0.00115360  0.00385228  0.24825100
   0.50115362  0.00385228  0.24825100
   0.25539222  0.54169978  0.46159237
   0.75539222  0.54169978  0.46159237
   0.30323652  0.44754026  0.34976444
   0.80323649  0.44754026  0.34976444
   0.05642374  0.44028621  0.05388650
   0.55642374  0.44028621  0.05388650
   0.41201474  0.67946025  0.40319735
   0.91201477  0.67946025  0.40319735
   0.01374485  0.52514519  0.13803349
   0.51374482  0.52514519  0.13803349
   0.39707382  0.81497049  0.30315306
   0.89707379  0.81497049  0.30315306
   0.00081556  0.50526131  0.25088235
   0.50081555  0.50526131  0.25088235
   0.25109072  0.04393554  0.03931730
   0.75109072  0.04393554  0.03931730
   0.30328879  0.94423915  0.15135879
   0.80328879  0.94423915  0.15135879
   0.05642374  0.94028618  0.55388654
   0.55642374  0.94028618  0.55388654
   0.41201474  0.17946026  0.90319738
   0.91201477  0.17946026  0.90319738
   0.01374485  0.02514516  0.63803346
   0.51374482  0.02514516  0.63803346
   0.39707382  0.31497052  0.80315303
   0.89707379  0.31497052  0.80315303
   0.00081556  0.00526132  0.75088235
   0.50081555  0.00526132  0.75088235
   0.25109072  0.54393555  0.53931727
   0.75109072  0.54393555  0.53931727
   0.30328879  0.44423915  0.65135882
   0.80328879  0.44423915  0.65135882
   0.30519484  0.55940356  0.94629983
   0.80519484  0.55940356  0.94629983
   0.16231840  0.32161610  0.59758446
   0.66231838  0.32161610  0.59758446
   0.26408777  0.47406423  0.86258599
   0.76408777  0.47406423  0.86258599
   0.14678772  0.18542846  0.69662600
   0.64678774  0.18542846  0.69662600
   0.25153389  0.49449058  0.74834279
   0.75153386  0.49449058  0.74834279
   0.00191120  0.95491068  0.96043795
   0.50191119  0.95491068  0.96043795
   0.05344579  0.05750442  0.84917350
   0.55344579  0.05750442  0.84917350
   0.30519484  0.05940352  0.44629989
   0.80519484  0.05940352  0.44629989
   0.16231840  0.82161610  0.09758448
   0.66231838  0.82161610  0.09758448
   0.26408777  0.97406420  0.36258596
   0.76408777  0.97406420  0.36258596
   0.14678772  0.68542846  0.19662595
   0.64678774  0.68542846  0.19662595
   0.25153389  0.99449058  0.24834276
   0.75153386  0.99449058  0.24834276
   0.00191120  0.45491071  0.46043795
   0.50191119  0.45491071  0.46043795
   0.05344579  0.55750444  0.34917356
   0.55344579  0.55750444  0.34917356
   0.15886418  0.16046510  0.50003534
   0.65886415  0.16046510  0.50003534
   0.15886418  0.66046516  1.00003537
   0.65886415  0.66046516  1.00003537
   0.40911270  0.84012062  0.49943383
   0.90911267  0.84012062  0.49943383
   0.40911270  0.34012068 -0.00056617
   0.90911267  0.34012068 -0.00056617
   0.14703512  0.24945359  0.34616637
   0.64703511  0.24945359  0.34616637
   0.14703512  0.74945359  0.84616640
   0.64703511  0.74945359  0.84616640
   0.39431005  0.75433848  0.55055754
   0.89431008  0.75433848  0.55055754
   0.39431005  0.25433848  0.05055753
   0.89431008  0.25433848  0.05055753
BiTiFeO                                 
           1
    10.980591   -0.003611    0.007083
    -0.001815    5.482456   -0.004159
     0.026317    0.031554   40.893430
   Bi   Ti   O    Fe
  40  24 120   8
Direct configuration=     4
   0.12460815  0.24750976  0.10457241
   0.62460816  0.24750976  0.10457241
   0.11913058  0.27299664  0.22017917
   0.61913056  0.27299664  0.22017917
   0.12460815  0.74750976  0.60457242
   0.62460816  0.74750976  0.60457242
   0.11913058  0.77299667  0.72017913
   0.61913056  0.77299667  0.72017913
   0.37705399  0.75019875  0.89339483
   0.87705396  0.75019875  0.89339483
   0.36633368  0.72636745  0.78100976
   0.86633368  0.72636745  0.78100976
   0.37705399  0.25019875  0.39339486
   0.87705396  0.25019875  0.39339486
   0.36633368  0.22636746  0.28100970
   0.86633368  0.22636746  0.28100970
   0.37575122  0.75430822  0.10480951
   0.87575122  0.75430822  0.10480951
   0.36908348  0.72849424  0.21982437
   0.86908348  0.72849424  0.21982437
   0.37575122  0.25430825  0.60480953
   0.87575122  0.25430825  0.60480953
   0.36908348  0.22849422  0.71982440
   0.86908348  0.22849422  0.71982440
   0.12710784  0.24929846  0.89315334
   0.62710783  0.24929846  0.89315334
   0.11789800  0.27880663  0.78126367
   0.61789799  0.27880663  0.78126367
   0.12710784  0.74929848  0.39315337
   0.62710783  0.74929848  0.39315337
   0.11789800  0.77880660  0.28126370
   0.61789799  0.77880660  0.28126370
   0.12125457  0.24114430  0.00191755
   0.62125459  0.24114430  0.00191755
   0.12125457  0.74114430  0.50191755
   0.62125459  0.74114430  0.50191755
   0.37254727  0.75739317  0.99994083
   0.87254730  0.75739317  0.99994083
   0.37254727  0.25739317  0.49994077
   0.87254730  0.25739317  0.49994077
   0.39801794  0.75049350  0.34683312
   0.89801794  0.75049350  0.34683312
   0.39801794  0.25049350  0.84683312
   0.89801794  0.25049350  0.84683312
   0.39734920  0.75081766  0.65347974
   0.89734920  0.75081766  0.65347974
   0.39734920  0.25081767  0.15347976
   0.89734920  0.25081767  0.15347976
   0.39577459  0.75283406  0.45019985
   0.89577462  0.75283406  0.45019985
   0.39577459  0.25283406  0.95019982
   0.89577462  0.25283406  0.95019982
   0.14661191  0.24752122  0.54963301
   0.64661194  0.24752122  0.54963301
   0.14784088  0.24856186  0.65349640
   0.64784087  0.24856186  0.65349640
   0.14784088  0.74856186  0.15349640
   0.64784087  0.74856186  0.15349640
   0.14661191  0.74752120  0.04963299
   0.64661194  0.74752120  0.04963299
   0.14487364  0.24567757  0.44995901
   0.64487367  0.24567757  0.44995901
   0.14487364  0.74567757  0.94995901
   0.64487367  0.74567757  0.94995901
   0.30194319  0.55846651  0.05528749
   0.80194322  0.55846651  0.05528749
   0.15949412  0.32025120  0.40370658
   0.65949409  0.32025120  0.40370658
   0.26318750  0.47340164  0.13791467
   0.76318753  0.47340164  0.13791467
   0.14729572  0.18227021  0.30269253
   0.64729575  0.18227021  0.30269253
   0.25178113  0.49487289  0.25129284
   0.75178116  0.49487289  0.25129284
   0.00614008  0.95708738  0.03849117
   0.50614008  0.95708738  0.03849117
   0.05254190  0.05307554  0.15059143
   0.55254188  0.05307554  0.15059143
   0.30194319  0.05846652  0.55528747
   0.80194322  0.05846652  0.55528747
   0.15949412  0.82025120  0.90370658
   0.65949409  0.82025120  0.90370658
   0.26318750  0.97340167  0.63791465
   0.76318753  0.97340167  0.63791465
   0.14729572  0.68227018  0.80269253
   0.64729575  0.68227018  0.80269253
   0.25178113  0.99487292  0.75129287
   0.75178116  0.99487292  0.75129287
   0.00614008  0.45708741  0.53849117
   0.50614008  0.45708741  0.53849117
   0.05254190  0.55307559  0.65059146
   0.55254188  0.55307559  0.65059146
   0.05164994  0.44682401  0.94486353
   0.55164995  0.44682401  0.94486353
   0.41177440  0.67750278  0.59728172
   0.91177437  0.67750278  0.59728172
   0.01318987  0.52639202  0.86251238
   0.51318985  0.52639202  0.86251238
   0.39561541  0.81141083  0.69575723
   0.89561541  0.81141083  0.69575723
   0.00103530  0.50322504  0.74855961
   0.50103532  0.50322504  0.74855961
   0.25484130  0.04025655  0.96147876
   0.75484130  0.04025655  0.96147876
   0.30258519  0.94846453  0.84969797
   0.80258516  0.94846453  0.84969797
   0.05164994  0.94682404  0.44486350
   0.55164995  0.94682404  0.44486350
   0.41177440  0.17750278  0.09728174
   0.91177437  0.17750278  0.09728174
   0.01318987  0.02639204  0.36251238
   0.51318985  0.02639204  0.36251238
   0.39561541  0.31141083  0.19575723
   0.89561541  0.31141083  0.19575723
   0.00103530  0.00322507  0.24855962
   0.50103532  0.00322507  0.24855962
   0.25484130  0.54025658  0.46147873
   0.75484130  0.54025658  0.46147873
   0.30258519  0.44846459  0.34969800
   0.80258516  0.44846459  0.34969800
   0.05482776  0.44050925  0.05404608
   0.55482775  0.44050925  0.05404608
   0.41093339  0.68005220  0.40313764
   0.91093342  0.68005220  0.40313764
   0.01366735  0.52529530  0.13792496
   0.51366732  0.52529530  0.13792496
   0.39692673  0.81361951  0.30359005
   0.89692670  0.81361951  0.30359005
   0.00079219  0.50565980  0.25113118
   0.50079218  0.50565980  0.25113118
   0.25265349  0.04338385  0.03944123
   0.75265349  0.04338385  0.03944123
   0.30308868  0.94431942  0.15107087
   0.80308868  0.94431942  0.15107087
   0.05482776  0.94050922  0.55404612
   0.55482775  0.94050922  0.55404612
   0.41093339  0.18005221  0.90313766
   0.91093342  0.18005221  0.90313766
   0.01366735  0.02529527  0.63792493
   0.51366732  0.02529527  0.63792493
   0.39692673  0.31361954  0.80359002
   0.89692670  0.31361954  0.80359002
   0.00079219  0.00565981  0.75113118
   0.50079218  0.00565981  0.75113118
   0.25265349  0.54338386  0.53944120
   0.75265349  0.54338386  0.53944120
   0.30308868  0.44431942  0.65107090
   0.80308868  0.44431942  0.65107090
   0.30334322  0.55924478  0.94618172
   0.80334322  0.55924478  0.94618172
   0.16135233  0.32132457  0.59752957
   0.66135231  0.32132457  0.59752957
   0.26456736  0.47406853  0.86231363
   0.76456736  0.47406853  0.86231363
   0.14646662  0.18718970  0.69585717
   0.64646663  0.18718970  0.69585717
   0.25159711  0.49480094  0.74861676
   0.75159708  0.49480094  0.74861676
   0.00351054  0.95451787  0.96051142
   0.50351053  0.95451787  0.96051142
   0.05297069  0.05643030  0.84918141
   0.55297069  0.05643030  0.84918141
   0.30334322  0.05924474  0.44618178
   0.80334322  0.05924474  0.44618178
   0.16135233  0.82132457  0.09752958
   0.66135231  0.82132457  0.09752958
   0.26456736  0.97406850  0.36231360
   0.76456736  0.97406850  0.36231360
   0.14646662  0.68718970  0.19585712
   0.64646663  0.68718970  0.19585712
   0.25159711  0.99480094  0.24861673
   0.75159708  0.99480094  0.24861673
   0.00351054  0.45451790  0.46051142
   0.50351053  0.45451790  0.46051142
   0.05297069  0.55643032  0.34918147
   0.55297069  0.55643032  0.34918147
   0.15920034  0.16248199  0.50006707
   0.65920031  0.16248199  0.50006707
   0.15920034  0.66248205  1.00006709
   0.65920031  0.66248205  1.00006709
   0.40960421  0.83830030  0.49965212
   0.90960418  0.83830030  0.49965212
   0.40960421  0.33830036 -0.00034788
   0.90960418  0.33830036 -0.00034788
   0.14662703  0.24879122  0.34578047
   0.64662701  0.24879122  0.34578047
   0.14662703  0.74879122  0.84578050
   0.64662701  0.74879122  0.84578050