BiTiFeO                                 
           1
    10.941923    0.002330    0.011928
     0.001168    5.464318   -0.000454
     0.044457    0.058669   40.446622
   Bi   Ti   O    Fe
  40  24 120   8
Direct configuration=     1
   0.12581734  0.24552768  0.10456018
   0.62581736  0.24552768  0.10456018
   0.11884221  0.27533320  0.21951799
   0.61884218  0.27533320  0.21951799
   0.12581734  0.74552768  0.60456020
   0.62581736  0.74552768  0.60456020
   0.11884221  0.77533323  0.71951795
   0.61884218  0.77533323  0.71951795
   0.37581733  0.75447232  0.89543980
   0.87581730  0.75447232  0.89543980
   0.36884218  0.72466677  0.78048205
   0.86884218  0.72466677  0.78048205
   0.37581733  0.25447232  0.39543983
   0.87581730  0.25447232  0.39543983
   0.36884218  0.22466679  0.28048199
   0.86884218  0.22466679  0.28048199
   0.37389028  0.75425547  0.10488448
   0.87389028  0.75425547  0.10488448
   0.36734301  0.72707325  0.21940872
   0.86734301  0.72707325  0.21940872
   0.37389028  0.25425550  0.60488451
   0.87389028  0.25425550  0.60488451
   0.36734301  0.22707324  0.71940875
   0.86734301  0.22707324  0.71940875
   0.12389029  0.24574450  0.89511549
   0.62389028  0.24574450  0.89511549
   0.11734302  0.27292678  0.78059125
   0.61734301  0.27292678  0.78059125
   0.12389029  0.74574453  0.39511553
   0.62389028  0.74574453  0.39511553
   0.11734302  0.77292675  0.28059128
   0.61734301  0.77292675  0.28059128
   0.12124083  0.24192810  0.00106251
   0.62124085  0.24192810  0.00106251
   0.12124083  0.74192810  0.50106251
   0.62124085  0.74192810  0.50106251
   0.37124082  0.75807190  0.99893749
   0.87124085  0.75807190  0.99893749
   0.37124082  0.25807190  0.49893743
   0.87124085  0.25807190  0.49893743
   0.39737403  0.74971396  0.34751427
   0.89737403  0.74971396  0.34751427
   0.39737403  0.24971396  0.84751427
   0.89737403  0.24971396  0.84751427
   0.39778417  0.74996662  0.65309596
   0.89778417  0.74996662  0.65309596
   0.39778417  0.24996664  0.15309598
   0.89778417  0.24996664  0.15309598
   0.39509413  0.75150693  0.45036468
   0.89509416  0.75150693  0.45036468
   0.39509413  0.25150693  0.95036465
   0.89509416  0.25150693  0.95036465
   0.14509413  0.24849309  0.54963535
   0.64509416  0.24849309  0.54963535
   0.14737405  0.25028604  0.65248573
   0.64737403  0.25028604  0.65248573
   0.14737405  0.75028604  0.15248573
   0.64737403  0.75028604  0.15248573
   0.14509413  0.74849307  0.04963534
   0.64509416  0.74849307  0.04963534
   0.39572605  0.75503856  0.54978108
   0.89572608  0.75503856  0.54978108
   0.39572605  0.25503856  0.04978108
   0.89572608  0.25503856  0.04978108
   0.30398616  0.55333757  0.05623510
   0.80398619  0.55333757  0.05623510
   0.16037145  0.32244712  0.40269166
   0.66037142  0.32244712  0.40269166
   0.26384732  0.47232899  0.13806446
   0.76384735  0.47232899  0.13806446
   0.14598581  0.18621907  0.30358261
   0.64598584  0.18621907  0.30358261
   0.25139269  0.49499974  0.25136027
   0.75139272  0.49499974  0.25136027
   0.00183105  0.96418035  0.03809405
   0.50183105  0.96418035  0.03809405
   0.05208983  0.05360783  0.15095773
   0.55208981  0.05360783  0.15095773
   0.30398616  0.05333758  0.55623508
   0.80398619  0.05333758  0.55623508
   0.16037145  0.82244712  0.90269166
   0.66037142  0.82244712  0.90269166
   0.26384732  0.97232902  0.63806444
   0.76384735  0.97232902  0.63806444
   0.14598581  0.68621904  0.80358261
   0.64598584  0.68621904  0.80358261
   0.25139269  0.99499977  0.75136030
   0.75139272  0.99499977  0.75136030
   0.00183105  0.46418038  0.53809404
   0.50183105  0.46418038  0.53809404
   0.05208983  0.55360788  0.65095776
   0.55208981  0.55360788  0.65095776
   0.05398618  0.44666240  0.94376492
   0.55398619  0.44666240  0.94376492
   0.41037145  0.67755288  0.59730834
   0.91037142  0.67755288  0.59730834
   0.01384731  0.52767098  0.86193556
   0.51384729  0.52767098  0.86193556
   0.39598584  0.81378096  0.69641739
   0.89598584  0.81378096  0.69641739
   0.00139270  0.50500023  0.74863970
   0.50139272  0.50500023  0.74863970
   0.25183105  0.03581963  0.96190596
   0.75183105  0.03581963  0.96190596
   0.30208984  0.94639212  0.84904224
   0.80208981  0.94639212  0.84904224
   0.05398618  0.94666243  0.44376490
   0.55398619  0.94666243  0.44376490
   0.41037145  0.17755288  0.09730835
   0.91037142  0.17755288  0.09730835
   0.01384731  0.02767100  0.36193556
   0.51384729  0.02767100  0.36193556
   0.39598584  0.31378096  0.19641739
   0.89598584  0.31378096  0.19641739
   0.00139270  0.00500026  0.24863972
   0.50139272  0.00500026  0.24863972
   0.25183105  0.53581965  0.46190593
   0.75183105  0.53581965  0.46190593
   0.30208984  0.44639218  0.34904227
   0.80208981  0.44639218  0.34904227
   0.05373246  0.42657372  0.05429961
   0.55373246  0.42657372  0.05429961
   0.41462371  0.67528647  0.40033671
   0.91462374  0.67528647  0.40033671
   0.01342812  0.52419931  0.13827106
   0.51342809  0.52419931  0.13827106
   0.39733556  0.81472349  0.30391791
   0.89733553  0.81472349  0.30391791
   0.00137807  0.50483209  0.25127208
   0.50137806  0.50483209  0.25127208
   0.25423092  0.05460011  0.03958693
   0.75423092  0.05460011  0.03958693
   0.30389983  0.94555801  0.15167758
   0.80389983  0.94555801  0.15167758
   0.05373246  0.92657369  0.55429965
   0.55373246  0.92657369  0.55429965
   0.41462371  0.17528649  0.90033674
   0.91462374  0.17528649  0.90033674
   0.01342812  0.02419928  0.63827103
   0.51342809  0.02419928  0.63827103
   0.39733556  0.31472352  0.80391788
   0.89733553  0.31472352  0.80391788
   0.00137807  0.00483209  0.75127208
   0.50137806  0.00483209  0.75127208
   0.25423092  0.55460012  0.53958690
   0.75423092  0.55460012  0.53958690
   0.30389983  0.44555801  0.65167761
   0.80389983  0.44555801  0.65167761
   0.30373246  0.57342631  0.94570035
   0.80373246  0.57342631  0.94570035
   0.16462369  0.32471353  0.59966326
   0.66462368  0.32471353  0.59966326
   0.26342809  0.47580072  0.86172897
   0.76342809  0.47580072  0.86172897
   0.14733557  0.18527651  0.69608212
   0.64733559  0.18527651  0.69608212
   0.25137809  0.49516791  0.74872792
   0.75137806  0.49516791  0.74872792
   0.00423092  0.94539988  0.96041310
   0.50423092  0.94539988  0.96041310
   0.05389983  0.05444197  0.84832239
   0.55389983  0.05444197  0.84832239
   0.30373246  0.07342626  0.44570041
   0.80373246  0.07342626  0.44570041
   0.16462369  0.82471353  0.09966327
   0.66462368  0.82471353  0.09966327
   0.26342809  0.97580069  0.36172894
   0.76342809  0.97580069  0.36172894
   0.14733557  0.68527651  0.19608207
   0.64733559  0.68527651  0.19608207
   0.25137809  0.99516791  0.24872789
   0.75137806  0.99516791  0.24872789
   0.00423092  0.44539991  0.46041310
   0.50423092  0.44539991  0.46041310
   0.05389983  0.55444199  0.34832245
   0.55389983  0.55444199  0.34832245
   0.15875485  0.15670252  0.49889919
   0.65875483  0.15670252  0.49889919
   0.15875485  0.65670258  0.99889922
   0.65875483  0.65670258  0.99889922
   0.40875485  0.84329742  0.50110078
   0.90875483  0.84329742  0.50110078
   0.40875485  0.34329748  0.00110078
   0.90875483  0.34329748  0.00110078
   0.14778419  0.25003338  0.34690401
   0.64778417  0.25003338  0.34690401
   0.14778419  0.75003338  0.84690404
   0.64778417  0.75003338  0.84690404
   0.14572605  0.24496144  0.45021892
   0.64572608  0.24496144  0.45021892
   0.14572605  0.74496144  0.95021892
   0.64572608  0.74496144  0.95021892
BiTiFeO                                 
           1
    10.998128    0.002279    0.006285
     0.001145    5.494702   -0.002635
     0.023286    0.042897   40.945892
   Bi   Ti   O    Fe
  40  24 120   8
Direct configuration=     2
   0.12584238  0.24687805  0.10563640
   0.62584240  0.24687805  0.10563640
   0.11917232  0.27307178  0.22076678
   0.61917230  0.27307178  0.22076678
   0.12584238  0.74687805  0.60563642
   0.62584240  0.74687805  0.60563642
   0.11917232  0.77307181  0.72076674
   0.61917230  0.77307181  0.72076674
   0.37465533  0.75176133  0.89332135
   0.87465530  0.75176133  0.89332135
   0.36781151  0.72348808  0.78186767
   0.86781151  0.72348808  0.78186767
   0.37465533  0.25176133  0.39332138
   0.87465530  0.25176133  0.39332138
   0.36781151  0.22348809  0.28186761
   0.86781151  0.22348809  0.28186761
   0.37502062  0.75352994  0.10589108
   0.87502062  0.75352994  0.10589108
   0.36793295  0.72902018  0.22061012
   0.86793295  0.72902018  0.22061012
   0.37502062  0.25352997  0.60589110
   0.87502062  0.25352997  0.60589110
   0.36793295  0.22902016  0.72061015
   0.86793295  0.22902016  0.72061015
   0.12603287  0.24613325  0.89308591
   0.62603286  0.24613325  0.89308591
   0.11732654  0.27606098  0.78203267
   0.61732653  0.27606098  0.78203267
   0.12603287  0.74613328  0.39308594
   0.62603286  0.74613328  0.39308594
   0.11732654  0.77606095  0.28203270
   0.61732653  0.77606095  0.28203270
   0.12229382  0.24188826 -0.00103661
   0.62229384  0.24188826 -0.00103661
   0.12229382  0.74188826  0.49896339
   0.62229384  0.74188826  0.49896339
   0.37121460  0.75928841  0.99680200
   0.87121463  0.75928841  0.99680200
   0.37121460  0.25928841  0.49680194
   0.87121463  0.25928841  0.49680194
   0.39789516  0.74900692  0.34704810
   0.89789516  0.74900692  0.34704810
   0.39789516  0.24900692  0.84704810
   0.89789516  0.24900692  0.84704810
   0.39786081  0.75072605  0.65449542
   0.89786081  0.75072605  0.65449542
   0.39786081  0.25072607  0.15449543
   0.89786081  0.25072607  0.15449543
   0.39695292  0.75555471  0.44818759
   0.89695295  0.75555471  0.44818759
   0.39695292  0.25555471  0.94818756
   0.89695295  0.25555471  0.94818756
   0.14564527  0.24645065  0.54906171
   0.64564530  0.24645065  0.54906171
   0.14751904  0.24880868  0.65437228
   0.64751903  0.24880868  0.65437228
   0.14751904  0.74880868  0.15437228
   0.64751903  0.74880868  0.15437228
   0.14564527  0.74645064  0.04906170
   0.64564530  0.74645064  0.04906170
   0.39526036  0.75373274  0.54987225
   0.89526039  0.75373274  0.54987225
   0.39526036  0.25373274  0.04987225
   0.89526039  0.25373274  0.04987225
   0.30060074  0.55635441  0.05613445
   0.80060077  0.55635441  0.05613445
   0.16087278  0.32253386  0.40377712
   0.66087275  0.32253386  0.40377712
   0.26332036  0.47284186  0.13756410
   0.76332039  0.47284186  0.13756410
   0.14656965  0.18458118  0.30310154
   0.64656968  0.18458118  0.30310154
   0.25139669  0.49533696  0.25059441
   0.75139672  0.49533696  0.25059441
   0.00519554  0.95881554  0.03891457
   0.50519554  0.95881554  0.03891457
   0.05256062  0.05421300  0.15036275
   0.55256060  0.05421300  0.15036275
   0.30060074  0.05635442  0.55613442
   0.80060077  0.05635442  0.55613442
   0.16087278  0.82253386  0.90377712
   0.66087275  0.82253386  0.90377712
   0.26332036  0.97284189  0.63756408
   0.76332039  0.97284189  0.63756408
   0.14656965  0.68458115  0.80310154
   0.64656968  0.68458115  0.80310154
   0.25139669  0.99533699  0.75059444
   0.75139672  0.99533699  0.75059444
   0.00519554  0.45881557  0.53891456
   0.50519554  0.45881557  0.53891456
   0.05256062  0.55421305  0.65036278
   0.55256060  0.55421305  0.65036278
   0.04892620  0.43844055  0.94524733
   0.54892621  0.43844055  0.94524733
   0.41044669  0.67825258  0.59674022
   0.91044666  0.67825258  0.59674022
   0.01308670  0.52689439  0.86249901
   0.51308669  0.52689439  0.86249901
   0.39570110  0.81133739  0.69525014
   0.89570110  0.81133739  0.69525014
   0.00146365  0.50483452  0.74786872
   0.50146367  0.50483452  0.74786872
   0.25592027  0.04398941  0.96261007
   0.75592027  0.04398941  0.96261007
   0.30348706  0.94649455  0.84954775
   0.80348703  0.94649455  0.84954775
   0.04892620  0.93844058  0.44524730
   0.54892621  0.93844058  0.44524730
   0.41044669  0.17825258  0.09674023
   0.91044666  0.17825258  0.09674023
   0.01308670  0.02689441  0.36249901
   0.51308669  0.02689441  0.36249901
   0.39570110  0.31133739  0.19525014
   0.89570110  0.31133739  0.19525014
   0.00146365  0.00483455  0.24786874
   0.50146367  0.00483455  0.24786874
   0.25592027  0.54398943  0.46261004
   0.75592027  0.54398943  0.46261004
   0.30348706  0.44649461  0.34954778
   0.80348703  0.44649461  0.34954778
   0.05585419  0.43942382  0.05441307
   0.55585418  0.43942382  0.05441307
   0.41231434  0.67954324  0.40338609
   0.91231437  0.67954324  0.40338609
   0.01333270  0.52455746  0.13771049
   0.51333267  0.52455746  0.13771049
   0.39740684  0.81578080  0.30327382
   0.89740681  0.81578080  0.30327382
   0.00096711  0.50466994  0.25045293
   0.50096709  0.50466994  0.25045293
   0.25183849  0.04610596  0.04015370
   0.75183849  0.04610596  0.04015370
   0.30380427  0.94408430  0.15103648
   0.80380427  0.94408430  0.15103648
   0.05585419  0.93942379  0.55441311
   0.55585418  0.93942379  0.55441311
   0.41231434  0.17954325  0.90338612
   0.91231437  0.17954325  0.90338612
   0.01333270  0.02455744  0.63771046
   0.51333267  0.02455744  0.63771046
   0.39740684  0.31578083  0.80327379
   0.89740681  0.31578083  0.80327379
   0.00096711  0.00466994  0.75045293
   0.50096709  0.00466994  0.75045293
   0.25183849  0.54610596  0.54015367
   0.75183849  0.54610596  0.54015367
   0.30380427  0.44408430  0.65103651
   0.80380427  0.44408430  0.65103651
   0.30735853  0.55877125  0.94698439
   0.80735853  0.55877125  0.94698439
   0.16332576  0.32207975  0.59765621
   0.66332575  0.32207975  0.59765621
   0.26392600  0.47410015  0.86237695
   0.76392600  0.47410015  0.86237695
   0.14693517  0.18800627  0.69479716
   0.64693518  0.18800627  0.69479716
   0.25143850  0.49478782  0.74799311
   0.75143847  0.49478782  0.74799311
   0.00003151  0.95592957  0.96138374
   0.50003151  0.95592957  0.96138374
   0.05382789  0.05762480  0.84889955
   0.55382789  0.05762480  0.84889955
   0.30735853  0.05877121  0.44698445
   0.80735853  0.05877121  0.44698445
   0.16332576  0.82207975  0.09765622
   0.66332575  0.82207975  0.09765622
   0.26392600  0.97410012  0.36237692
   0.76392600  0.97410012  0.36237692
   0.14693517  0.68800627  0.19479712
   0.64693518  0.68800627  0.19479712
   0.25143850  0.99478782  0.24799308
   0.75143847  0.99478782  0.24799308
   0.00003151  0.45592960  0.46138374
   0.50003151  0.45592960  0.46138374
   0.05382789  0.55762482  0.34889961
   0.55382789  0.55762482  0.34889961
   0.15867566  0.15898870  0.50143258
   0.65867563  0.15898870  0.50143258
   0.15867566  0.65898876  1.00143261
   0.65867563  0.65898876  1.00143261
   0.40868512  0.84010284  0.50100539
   0.90868509  0.84010284  0.50100539
   0.40868512  0.34010290  0.00100539
   0.90868509  0.34010290  0.00100539
   0.14725439  0.24959731  0.34674134
   0.64725437  0.24959731  0.34674134
   0.14725439  0.74959731  0.84674137
   0.64725437  0.74959731  0.84674137
   0.14503882  0.24552562  0.44807604
   0.64503885  0.24552562  0.44807604
   0.14503882  0.74552562  0.94807604
   0.64503885  0.74552562  0.94807604
BiTiFeO                                 
           1
    11.014516    0.001381   -0.002522
     0.000700    5.501164   -0.005494
    -0.009452    0.021631   40.923408
   Bi   Ti   O    Fe
  40  24 120   8
Direct configuration=     3
   0.12623010  0.24682224  0.10535013
   0.62623011  0.24682224  0.10535013
   0.11956177  0.27203212  0.22054035
   0.61956175  0.27203212  0.22054035
   0.12623010  0.74682224  0.60535015
   0.62623011  0.74682224  0.60535015
   0.11956177  0.77203215  0.72054030
   0.61956175  0.77203215  0.72054030
   0.37485687  0.75109849  0.89361094
   0.87485684  0.75109849  0.89361094
   0.36730831  0.72403398  0.78191627
   0.86730831  0.72403398  0.78191627
   0.37485687  0.25109849  0.39361097
   0.87485684  0.25109849  0.39361097
   0.36730831  0.22403400  0.28191621
   0.86730831  0.22403400  0.28191621
   0.37519330  0.75338028  0.10560552
   0.87519330  0.75338028  0.10560552
   0.36859005  0.72984847  0.22033100
   0.86859005  0.72984847  0.22033100
   0.37519330  0.25338031  0.60560555
   0.87519330  0.25338031  0.60560555
   0.36859005  0.22984846  0.72033103
   0.86859005  0.22984846  0.72033103
   0.12664061  0.24645312  0.89336661
   0.62664061  0.24645312  0.89336661
   0.11737247  0.27682356  0.78210430
   0.61737246  0.27682356  0.78210430
   0.12664061  0.74645315  0.39336664
   0.62664061  0.74645315  0.39336664
   0.11737247  0.77682353  0.28210433
   0.61737246  0.77682353  0.28210433
   0.12231939  0.24179521 -0.00108703
   0.62231942  0.24179521 -0.00108703
   0.12231939  0.74179521  0.49891297
   0.62231942  0.74179521  0.49891297
   0.37134702  0.75937234  0.99687768
   0.87134705  0.75937234  0.99687768
   0.37134702  0.25937234  0.49687762
   0.87134705  0.25937234  0.49687762
   0.39804011  0.74949584  0.34724309
   0.89804011  0.74949584  0.34724309
   0.39804011  0.24949584  0.84724309
   0.89804011  0.24949584  0.84724309
   0.39786901  0.74899627  0.65286087
   0.89786901  0.74899627  0.65286087
   0.39786901  0.24899628  0.15286089
   0.89786901  0.24899628  0.15286089
   0.39670386  0.75425906  0.44896836
   0.89670389  0.75425906  0.44896836
   0.39670386  0.25425906  0.94896833
   0.89670389  0.25425906  0.94896833
   0.14564015  0.24661740  0.54922846
   0.64564018  0.24661740  0.54922846
   0.14756237  0.25099434  0.65239750
   0.64756236  0.25099434  0.65239750
   0.14756237  0.75099434  0.15239750
   0.64756236  0.75099434  0.15239750
   0.14564015  0.74661739  0.04922845
   0.64564018  0.74661739  0.04922845
   0.39512542  0.75408309  0.54973921
   0.89512545  0.75408309  0.54973921
   0.39512542  0.25408309  0.04973921
   0.89512545  0.25408309  0.04973921
   0.30100996  0.55526055  0.05612370
   0.80100999  0.55526055  0.05612370
   0.16101832  0.32276458  0.40342900
   0.66101829  0.32276458  0.40342900
   0.26340973  0.47276577  0.13776210
   0.76340976  0.47276577  0.13776210
   0.14679607  0.18378990  0.30280175
   0.64679610  0.18378990  0.30280175
   0.25139019  0.49502589  0.25079921
   0.75139022  0.49502589  0.25079921
   0.00503961  0.95899616  0.03899475
   0.50503962  0.95899616  0.03899475
   0.05236859  0.05384450  0.15055650
   0.55236857  0.05384450  0.15055650
   0.30100996  0.05526055  0.55612368
   0.80100999  0.05526055  0.55612368
   0.16101832  0.82276458  0.90342900
   0.66101829  0.82276458  0.90342900
   0.26340973  0.97276580  0.63776208
   0.76340976  0.97276580  0.63776208
   0.14679607  0.68378987  0.80280175
   0.64679610  0.68378987  0.80280175
   0.25139019  0.99502592  0.75079924
   0.75139022  0.99502592  0.75079924
   0.00503961  0.45899619  0.53899474
   0.50503962  0.45899619  0.53899474
   0.05236859  0.55384455  0.65055653
   0.55236857  0.55384455  0.65055653
   0.05003375  0.43954393  0.94533170
   0.55003376  0.43954393  0.94533170
   0.41040373  0.67861654  0.59680285
   0.91040370  0.67861654  0.59680285
   0.01288619  0.52641188  0.86238831
   0.51288617  0.52641188  0.86238831
   0.39544170  0.81310946  0.69675654
   0.89544170  0.81310946  0.69675654
   0.00131648  0.50415340  0.74801021
   0.50131650  0.50415340  0.74801021
   0.25592695  0.04339731  0.96243629
   0.75592695  0.04339731  0.96243629
   0.30335448  0.94729062  0.84941704
   0.80335445  0.94729062  0.84941704
   0.05003375  0.93954396  0.44533167
   0.55003376  0.93954396  0.44533167
   0.41040373  0.17861654  0.09680286
   0.91040370  0.17861654  0.09680286
   0.01288619  0.02641191  0.36238831
   0.51288617  0.02641191  0.36238831
   0.39544170  0.31310946  0.19675654
   0.89544170  0.31310946  0.19675654
   0.00131648  0.00415343  0.24801022
   0.50131650  0.00415343  0.24801022
   0.25592695  0.54339734  0.46243626
   0.75592695  0.54339734  0.46243626
   0.30335448  0.44729068  0.34941707
   0.80335445  0.44729068  0.34941707
   0.05515862  0.43978584  0.05450920
   0.55515861  0.43978584  0.05450920
   0.41178333  0.67926075  0.40284809
   0.91178336  0.67926075  0.40284809
   0.01333981  0.52456109  0.13790335
   0.51333978  0.52456109  0.13790335
   0.39733011  0.81567365  0.30302417
   0.89733008  0.81567365  0.30302417
   0.00082628  0.50520794  0.25064899
   0.50082626  0.50520794  0.25064899
   0.25224465  0.04625048  0.04015336
   0.75224465  0.04625048  0.04015336
   0.30358049  0.94441062  0.15119524
   0.80358049  0.94441062  0.15119524
   0.05515862  0.93978581  0.55450924
   0.55515861  0.93978581  0.55450924
   0.41178333  0.17926076  0.90284812
   0.91178336  0.17926076  0.90284812
   0.01333981  0.02456106  0.63790332
   0.51333978  0.02456106  0.63790332
   0.39733011  0.31567368  0.80302414
   0.89733008  0.31567368  0.80302414
   0.00082628  0.00520794  0.75064899
   0.50082626  0.00520794  0.75064899
   0.25224465  0.54625049  0.54015333
   0.75224465  0.54625049  0.54015333
   0.30358049  0.44441062  0.65119527
   0.80358049  0.44441062  0.65119527
   0.30637489  0.55946981  0.94689588
   0.80637489  0.55946981  0.94689588
   0.16294533  0.32182285  0.59755652
   0.66294532  0.32182285  0.59755652
   0.26426656  0.47365735  0.86227458
   0.76426656  0.47365735  0.86227458
   0.14665098  0.18577301  0.69661108
   0.64665099  0.18577301  0.69661108
   0.25139453  0.49510782  0.74813711
   0.75139450  0.49510782  0.74813711
   0.00098001  0.95633487  0.96126700
   0.50098000  0.95633487  0.96126700
   0.05351379  0.05750965  0.84882929
   0.55351378  0.05750965  0.84882929
   0.30637489  0.05946976  0.44689594
   0.80637489  0.05946976  0.44689594
   0.16294533  0.82182285  0.09755653
   0.66294532  0.82182285  0.09755653
   0.26426656  0.97365732  0.36227455
   0.76426656  0.97365732  0.36227455
   0.14665098  0.68577301  0.19661104
   0.64665099  0.68577301  0.19661104
   0.25139453  0.99510782  0.24813708
   0.75139450  0.99510782  0.24813708
   0.00098001  0.45633490  0.46126700
   0.50098000  0.45633490  0.46126700
   0.05351379  0.55750967  0.34882935
   0.55351378  0.55750967  0.34882935
   0.15871862  0.15982279  0.50121771
   0.65871859  0.15982279  0.50121771
   0.15871862  0.65982285  1.00121774
   0.65871859  0.65982285  1.00121774
   0.40873759  0.83914071  0.50092486
   0.90873756  0.83914071  0.50092486
   0.40873759  0.33914077  0.00092486
   0.90873756  0.33914077  0.00092486
   0.14691075  0.24942498  0.34682118
   0.64691074  0.24942498  0.34682118
   0.14691075  0.74942498  0.84682121
   0.64691074  0.74942498  0.84682121
   0.14448692  0.24570931  0.44851909
   0.64448695  0.24570931  0.44851909
   0.14448692  0.74570931  0.94851909
   0.64448695  0.74570931  0.94851909
BiTiFeO                                 
           1
    10.976029    0.000735    0.000961
     0.000376    5.480528   -0.004980
     0.003567    0.025395   40.914764
   Bi   Ti   O    Fe
  40  24 120   8
Direct configuration=     4
   0.12663037  0.24734350  0.10500252
   0.62663038  0.24734350  0.10500252
   0.12001942  0.27161825  0.22052749
   0.62001939  0.27161825  0.22052749
   0.12663037  0.74734350  0.60500253
   0.62663038  0.74734350  0.60500253
   0.12001942  0.77161828  0.72052745
   0.62001939  0.77161828  0.72052745
   0.37465679  0.75007233  0.89351843
   0.87465676  0.75007233  0.89351843
   0.36594666  0.72510567  0.78157481
   0.86594666  0.72510567  0.78157481
   0.37465679  0.25007233  0.39351846
   0.87465676  0.25007233  0.39351846
   0.36594666  0.22510568  0.28157475
   0.86594666  0.22510568  0.28157475
   0.37552571  0.75261513  0.10526366
   0.87552571  0.75261513  0.10526366
   0.36952528  0.73006723  0.22022990
   0.86952528  0.73006723  0.22022990
   0.37552571  0.25261516  0.60526369
   0.87552571  0.25261516  0.60526369
   0.36952528  0.23006721  0.72022993
   0.86952528  0.23006721  0.72022993
   0.12741828  0.24678239  0.89326995
   0.62741827  0.24678239  0.89326995
   0.11725045  0.27891109  0.78180107
   0.61725044  0.27891109  0.78180107
   0.12741828  0.74678242  0.39326998
   0.62741827  0.74678242  0.39326998
   0.11725045  0.77891106  0.28180110
   0.61725044  0.77891106  0.28180110
   0.12244464  0.24196805 -0.00156947
   0.62244467  0.24196805 -0.00156947
   0.12244464  0.74196805  0.49843053
   0.62244467  0.74196805  0.49843053
   0.37141686  0.75936364  0.99658504
   0.87141689  0.75936364  0.99658504
   0.37141686  0.25936364  0.49658498
   0.87141689  0.25936364  0.49658498
   0.39848889  0.75079824  0.34664406
   0.89848889  0.75079824  0.34664406
   0.39848889  0.25079824  0.84664406
   0.89848889  0.25079824  0.84664406
   0.39761591  0.75115639  0.65391667
   0.89761591  0.75115639  0.65391667
   0.39761591  0.25115641  0.15391668
   0.89761591  0.25115641  0.15391668
   0.39689846  0.75264455  0.44937201
   0.89689849  0.75264455  0.44937201
   0.39689846  0.25264455  0.94937198
   0.89689849  0.25264455  0.94937198
   0.14553907  0.24648033  0.54912714
   0.64553910  0.24648033  0.54912714
   0.14752076  0.24853848  0.65353123
   0.64752074  0.24853848  0.65353123
   0.14752076  0.74853848  0.15353123
   0.64752074  0.74853848  0.15353123
   0.14553907  0.74648032  0.04912713
   0.64553910  0.74648032  0.04912713
   0.39501351  0.75445580  0.54934231
   0.89501354  0.75445580  0.54934231
   0.39501351  0.25445580  0.04934230
   0.89501354  0.25445580  0.04934230
   0.30161136  0.55287609  0.05612914
   0.80161139  0.55287609  0.05612914
   0.16128238  0.32263255  0.40340937
   0.66128235  0.32263255  0.40340937
   0.26342361  0.47288135  0.13772159
   0.76342364  0.47288135  0.13772159
   0.14746798  0.18267136  0.30284262
   0.64746801  0.18267136  0.30284262
   0.25166360  0.49451630  0.25120760
   0.75166363  0.49451630  0.25120760
   0.00507257  0.95922061  0.03930426
   0.50507257  0.95922061  0.03930426
   0.05225925  0.05351330  0.15037073
   0.55225922  0.05351330  0.15037073
   0.30161136  0.05287609  0.55612912
   0.80161139  0.05287609  0.55612912
   0.16128238  0.82263255  0.90340937
   0.66128235  0.82263255  0.90340937
   0.26342361  0.97288138  0.63772158
   0.76342364  0.97288138  0.63772158
   0.14746798  0.68267133  0.80284262
   0.64746801  0.68267133  0.80284262
   0.25166360  0.99451633  0.75120763
   0.75166363  0.99451633  0.75120763
   0.00507257  0.45922064  0.53930426
   0.50507257  0.45922064  0.53930426
   0.05225925  0.55351335  0.65037076
   0.55225922  0.55351335  0.65037076
   0.05164901  0.44072466  0.94589131
   0.55164902  0.44072466  0.94589131
   0.41035985  0.67939178  0.59678137
   0.91035982  0.67939178  0.59678137
   0.01249716  0.52563982  0.86239225
   0.51249714  0.52563982  0.86239225
   0.39517985  0.81080645  0.69582013
   0.89517985  0.81080645  0.69582013
   0.00113284  0.50297253  0.74846150
   0.50113287  0.50297253  0.74846150
   0.25600701  0.04225198  0.96233207
   0.75600701  0.04225198  0.96233207
   0.30341924  0.94813202  0.84954297
   0.80341921  0.94813202  0.84954297
   0.05164901  0.94072469  0.44589128
   0.55164902  0.94072469  0.44589128
   0.41035985  0.17939178  0.09678138
   0.91035982  0.17939178  0.09678138
   0.01249716  0.02563984  0.36239225
   0.51249714  0.02563984  0.36239225
   0.39517985  0.31080645  0.19582013
   0.89517985  0.31080645  0.19582013
   0.00113284  0.00297256  0.24846151
   0.50113287  0.00297256  0.24846151
   0.25600701  0.54225200  0.46233204
   0.75600701  0.54225200  0.46233204
   0.30341924  0.44813208  0.34954300
   0.80341921  0.44813208  0.34954300
   0.05365582  0.44165151  0.05478414
   0.55365582  0.44165151  0.05478414
   0.41042075  0.68010982  0.40291054
   0.91042078  0.68010982  0.40291054
   0.01335464  0.52468712  0.13784480
   0.51335461  0.52468712  0.13784480
   0.39724801  0.81426426  0.30344350
   0.89724798  0.81426426  0.30344350
   0.00076865  0.50598712  0.25104556
   0.50076864  0.50598712  0.25104556
   0.25327377  0.04606907  0.04024985
   0.75327377  0.04606907  0.04024985
   0.30319208  0.94452295  0.15091862
   0.80319208  0.94452295  0.15091862
   0.05365582  0.94165148  0.55478418
   0.55365582  0.94165148  0.55478418
   0.41042075  0.18010983  0.90291057
   0.91042078  0.18010983  0.90291057
   0.01335464  0.02468710  0.63784477
   0.51335461  0.02468710  0.63784477
   0.39724801  0.31426429  0.80344347
   0.89724798  0.31426429  0.80344347
   0.00076865  0.00598713  0.75104556
   0.50076864  0.00598713  0.75104556
   0.25327377  0.54606908  0.54024982
   0.75327377  0.54606908  0.54024982
   0.30319208  0.44452295  0.65091865
   0.80319208  0.44452295  0.65091865
   0.30475510  0.55949855  0.94707232
   0.80475510  0.55949855  0.94707232
   0.16208299  0.32114287  0.59727358
   0.66208297  0.32114287  0.59727358
   0.26474110  0.47287078  0.86230089
   0.76474110  0.47287078  0.86230089
   0.14622705  0.18804774  0.69566763
   0.64622706  0.18804774  0.69566763
   0.25153233  0.49555466  0.74857145
   0.75153230  0.49555466  0.74857145
   0.00274717  0.95773983  0.96130943
   0.50274717  0.95773983  0.96130943
   0.05320313  0.05808934  0.84909017
   0.55320313  0.05808934  0.84909017
   0.30475510  0.05949850  0.44707238
   0.80475510  0.05949850  0.44707238
   0.16208299  0.82114287  0.09727360
   0.66208297  0.82114287  0.09727360
   0.26474110  0.97287075  0.36230086
   0.76474110  0.97287075  0.36230086
   0.14622705  0.68804774  0.19566758
   0.64622706  0.68804774  0.19566758
   0.25153233  0.99555466  0.24857142
   0.75153230  0.99555466  0.24857142
   0.00274717  0.45773986  0.46130943
   0.50274717  0.45773986  0.46130943
   0.05320313  0.55808937  0.34909023
   0.55320313  0.55808937  0.34909023
   0.15896606  0.16189368  0.50122584
   0.65896603  0.16189368  0.50122584
   0.15896606  0.66189374  1.00122587
   0.65896603  0.66189374  1.00122587
   0.40895926  0.83681782  0.50100399
   0.90895923  0.83681782  0.50100399
   0.40895926  0.33681788  0.00100399
   0.90895923  0.33681788  0.00100399
   0.14625821  0.24853967  0.34625455
   0.64625820  0.24853967  0.34625455
   0.14625821  0.74853967  0.84625458
   0.64625820  0.74853967  0.84625458