       N       E                     dE             d eps       ncg     rms          rms(c)
DAV:   1     0.110793451589E+05    0.11079E+05   -0.39372E+05 43032   0.125E+03
DAV:   2     0.103187984066E+04   -0.10047E+05   -0.92474E+04 44376   0.350E+02
DAV:   3    -0.142376267637E+04   -0.24556E+04   -0.23752E+04 48420   0.180E+02
DAV:   4    -0.164839638413E+04   -0.22463E+03   -0.22102E+03 64944   0.606E+01
DAV:   5    -0.165708519098E+04   -0.86888E+01   -0.85640E+01 67560   0.138E+01
DAV:   6    -0.165748585760E+04   -0.40067E+00   -0.39689E+00 68160   0.252E+00
DAV:   7    -0.165751035483E+04   -0.24497E-01   -0.24380E-01 68292   0.630E-01
DAV:   8    -0.165751215797E+04   -0.18031E-02   -0.17988E-02 63576   0.146E-01
DAV:   9    -0.165751230286E+04   -0.14490E-03   -0.14467E-03 44388   0.425E-02
DAV:  10    -0.165751231569E+04   -0.12827E-04   -0.12793E-04 36300   0.159E-02
DAV:  11    -0.165751231816E+04   -0.24680E-05   -0.24533E-05 33732   0.998E-03
DAV:  12    -0.165751231944E+04   -0.12815E-05   -0.12729E-05 32652   0.717E-03    0.162E+02
DAV:  13    -0.123619909682E+04    0.42131E+03   -0.25304E+03 63648   0.826E+01    0.116E+02
DAV:  14    -0.136045397714E+04   -0.12425E+03   -0.26974E+03 70224   0.106E+02    0.158E+02
DAV:  15    -0.131500501478E+04    0.45449E+02   -0.82163E+02 67692   0.796E+01    0.673E+01
DAV:  16    -0.127492540865E+04    0.40080E+02   -0.18225E+02 71436   0.366E+01    0.533E+01
DAV:  17    -0.125614619699E+04    0.18779E+02   -0.73977E+01 63588   0.147E+01    0.329E+01
DAV:  18    -0.125397141103E+04    0.21748E+01   -0.66146E+01 61344   0.148E+01    0.358E+01
DAV:  19    -0.125095065093E+04    0.30208E+01   -0.31730E+01 67296   0.110E+01    0.205E+01
DAV:  20    -0.124870824148E+04    0.22424E+01   -0.10605E+01 67536   0.879E+00    0.983E+00
DAV:  21    -0.124798014812E+04    0.72809E+00   -0.29689E+00 65112   0.359E+00    0.648E+00
DAV:  22    -0.124754845314E+04    0.43169E+00   -0.12685E+00 64872   0.251E+00    0.515E+00
DAV:  23    -0.124728447931E+04    0.26397E+00   -0.42317E-01 65016   0.171E+00    0.479E+00
DAV:  24    -0.124728369698E+04    0.78233E-03   -0.31227E-01 58884   0.861E-01    0.392E+00
DAV:  25    -0.124723396300E+04    0.49734E-01   -0.18593E-01 66396   0.803E-01    0.492E+00
DAV:  26    -0.124722844226E+04    0.55207E-02   -0.24690E-02 59184   0.221E-01    0.494E+00
DAV:  27    -0.124726523513E+04   -0.36793E-01   -0.87674E-02 73104   0.395E-01    0.705E+00
DAV:  28    -0.124736513914E+04   -0.99904E-01   -0.14627E-01 67056   0.103E+00    0.851E+00
DAV:  29    -0.124721039436E+04    0.15474E+00   -0.70844E-01 62424   0.118E+00    0.624E+00
DAV:  30    -0.124718451233E+04    0.25882E-01   -0.40125E-01 56316   0.774E-01    0.722E+00
DAV:  31    -0.124720152373E+04   -0.17011E-01   -0.32728E-02 56460   0.306E-01    0.768E+00
DAV:  32    -0.124720111462E+04    0.40911E-03   -0.15763E-02 64488   0.230E-01    0.639E+00
DAV:  33    -0.124716425558E+04    0.36859E-01   -0.13249E-01 68316   0.909E-01    0.677E+00
DAV:  34    -0.124717774445E+04   -0.13489E-01   -0.89611E-02 59304   0.538E-01    0.634E+00
DAV:  35    -0.124717279506E+04    0.49494E-02   -0.26212E-02 55080   0.214E-01    0.609E+00
DAV:  36    -0.124715307285E+04    0.19722E-01   -0.10658E-01 65988   0.309E-01    0.381E+00
DAV:  37    -0.124717420812E+04   -0.21135E-01   -0.49087E-02 56988   0.180E-01    0.358E+00
DAV:  38    -0.124717885578E+04   -0.46477E-02   -0.49574E-02 59748   0.142E-01    0.396E+00
DAV:  39    -0.124718082621E+04   -0.19704E-02   -0.16433E-03 48888   0.532E-02    0.412E+00
DAV:  40    -0.124719520705E+04   -0.14381E-01   -0.40986E-02 67332   0.257E-01    0.539E+00
DAV:  41    -0.124718786415E+04    0.73429E-02   -0.21479E-02 58356   0.134E-01    0.505E+00
DAV:  42    -0.124718425621E+04    0.36079E-02   -0.65475E-02 62508   0.284E-01    0.564E+00
DAV:  43    -0.124718289832E+04    0.13579E-02   -0.16560E-02 57984   0.208E-01    0.625E+00
DAV:  44    -0.124717499604E+04    0.79023E-02   -0.13109E-02 59856   0.151E-01    0.522E+00
DAV:  45    -0.124715173047E+04    0.23266E-01   -0.12143E-01 64860   0.464E-01    0.364E+00
DAV:  46    -0.124714029607E+04    0.11434E-01   -0.78613E-02 58176   0.389E-01    0.139E+00
DAV:  47    -0.124714736265E+04   -0.70666E-02   -0.17626E-02 53292   0.205E-01    0.228E+00
DAV:  48    -0.124714803433E+04   -0.67168E-03   -0.47890E-03 55272   0.957E-02    0.220E+00
DAV:  49    -0.124714601654E+04    0.20178E-02   -0.59833E-03 62664   0.112E-01    0.149E+00
DAV:  50    -0.124714690045E+04   -0.88391E-03   -0.53551E-03 61716   0.138E-01    0.489E-01
DAV:  51    -0.124715161270E+04   -0.47123E-02   -0.24209E-02 61212   0.299E-01    0.196E+00
DAV:  52    -0.124715500731E+04   -0.33946E-02   -0.99417E-03 54492   0.148E-01    0.274E+00
DAV:  53    -0.124715334039E+04    0.16669E-02   -0.47303E-03 57816   0.937E-02    0.242E+00
DAV:  54    -0.124715265653E+04    0.68385E-03   -0.14872E-03 42900   0.477E-02    0.208E+00
DAV:  55    -0.124715139379E+04    0.12627E-02   -0.77819E-04 43176   0.602E-02    0.153E+00
DAV:  56    -0.124714893872E+04    0.24551E-02   -0.20593E-03 49632   0.646E-02    0.813E-01
DAV:  57    -0.124714849841E+04    0.44031E-03   -0.16271E-03 45672   0.440E-02    0.561E-01
DAV:  58    -0.124714826506E+04    0.23335E-03   -0.33234E-03 63288   0.139E-01    0.326E-01
DAV:  59    -0.124714776057E+04    0.50448E-03   -0.25098E-03 54120   0.555E-02    0.411E-01
DAV:  60    -0.124714815921E+04   -0.39864E-03   -0.10920E-03 35976   0.285E-02    0.455E-01
DAV:  61    -0.124714860727E+04   -0.44805E-03   -0.78874E-04 35556   0.241E-02    0.457E-01
DAV:  62    -0.124714941734E+04   -0.81007E-03   -0.46705E-03 44736   0.616E-02    0.249E-01
DAV:  63    -0.124714929566E+04    0.12168E-03   -0.38619E-03 49392   0.654E-02    0.214E-01
DAV:  64    -0.124714873696E+04    0.55870E-03   -0.63317E-03 50676   0.642E-02    0.594E-01
DAV:  65    -0.124714713599E+04    0.16010E-02   -0.61196E-03 50160   0.695E-02    0.870E-01
DAV:  66    -0.124714660593E+04    0.53006E-03   -0.73069E-04 41460   0.362E-02    0.848E-01
DAV:  67    -0.124714639948E+04    0.20645E-03   -0.99508E-05 28284   0.145E-02    0.937E-01
DAV:  68    -0.124714704103E+04   -0.64154E-03   -0.26766E-03 36240   0.482E-02    0.599E-01
DAV:  69    -0.124714737681E+04   -0.33578E-03   -0.27310E-04 32340   0.251E-02    0.618E-01
DAV:  70    -0.124714820235E+04   -0.82554E-03   -0.10461E-03 35340   0.388E-02    0.783E-01
DAV:  71    -0.124714731936E+04    0.88299E-03   -0.14468E-03 34476   0.485E-02    0.932E-01
DAV:  72    -0.124714740487E+04   -0.85516E-04   -0.32848E-03 38772   0.505E-02    0.124E+00
DAV:  73    -0.124714751653E+04   -0.11166E-03   -0.12840E-03 39984   0.403E-02    0.860E-01
DAV:  74    -0.124714897949E+04   -0.14630E-02   -0.39154E-03 44292   0.627E-02    0.798E-01
DAV:  75    -0.124715048301E+04   -0.15035E-02   -0.41507E-03 50424   0.648E-02    0.743E-01
DAV:  76    -0.124714887430E+04    0.16087E-02   -0.39032E-03 52620   0.815E-02    0.856E-01
DAV:  77    -0.124714923688E+04   -0.36259E-03   -0.22785E-04 28524   0.250E-02    0.809E-01
DAV:  78    -0.124714984190E+04   -0.60502E-03   -0.21271E-03 38100   0.440E-02    0.437E-01
DAV:  79    -0.124715117922E+04   -0.13373E-02   -0.98016E-04 44292   0.431E-02    0.717E-01
DAV:  80    -0.124715225325E+04   -0.10740E-02   -0.19512E-03 41784   0.419E-02    0.863E-01
DAV:  81    -0.124715341541E+04   -0.11622E-02   -0.78906E-03 49488   0.723E-02    0.106E+00
DAV:  82    -0.124715387288E+04   -0.45747E-03   -0.25785E-03 46080   0.450E-02    0.123E+00
DAV:  83    -0.124715361903E+04    0.25385E-03   -0.50336E-04 35232   0.294E-02    0.119E+00
DAV:  84    -0.124715272088E+04    0.89815E-03   -0.80604E-03 55032   0.767E-02    0.107E+00
DAV:  85    -0.124715040075E+04    0.23201E-02   -0.31538E-02 56112   0.147E-01    0.165E+00
DAV:  86    -0.124715725713E+04   -0.68564E-02   -0.56691E-02 54828   0.205E-01    0.505E+00
DAV:  87    -0.124715677965E+04    0.47748E-03   -0.65394E-03 45132   0.124E-01    0.547E+00
DAV:  88    -0.124715562782E+04    0.11518E-02   -0.22169E-03 41604   0.406E-02    0.543E+00
DAV:  89    -0.124715596774E+04   -0.33992E-03   -0.17699E-04 31944   0.203E-02    0.557E+00
DAV:  90    -0.124715463500E+04    0.13327E-02   -0.47929E-05 25464   0.128E-02    0.544E+00
DAV:  91    -0.124714779440E+04    0.68406E-02   -0.58949E-04 33696   0.405E-02    0.455E+00
DAV:  92    -0.124714290618E+04    0.48882E-02   -0.50263E-03 46368   0.706E-02    0.279E+00
DAV:  93    -0.124714993573E+04   -0.70295E-02   -0.57747E-03 48624   0.809E-02    0.403E+00
DAV:  94    -0.124714671249E+04    0.32232E-02   -0.37343E-04 30264   0.304E-02    0.351E+00
DAV:  95    -0.124714684987E+04   -0.13738E-03   -0.11735E-04 25080   0.167E-02    0.349E+00
DAV:  96    -0.124714686058E+04   -0.10710E-04   -0.23074E-05 23712   0.810E-03
   1 F= -.12471469E+04 E0= -.12470572E+04  d E =-.124715E+04  mag=    39.1750
       N       E                     dE             d eps       ncg     rms          rms(c)
DAV:   1    -0.124817037103E+04   -0.10235E+01   -0.25448E+03 43008   0.711E+01    0.289E+01
DAV:   2    -0.125433851582E+04   -0.61681E+01   -0.17916E+02 63408   0.327E+01    0.372E+01
DAV:   3    -0.125465352054E+04   -0.31500E+00   -0.37319E+01 61152   0.974E+00    0.237E+01
DAV:   4    -0.125215571678E+04    0.24978E+01   -0.57636E+00 64548   0.433E+00    0.175E+01
DAV:   5    -0.125208568518E+04    0.70032E-01   -0.92164E+00 63924   0.506E+00    0.773E+00
DAV:   6    -0.125165835595E+04    0.42733E+00   -0.20226E+00 61032   0.289E+00    0.440E+00
DAV:   7    -0.125164084881E+04    0.17507E-01   -0.14964E+00 64524   0.238E+00    0.318E+00
DAV:   8    -0.125161649545E+04    0.24353E-01   -0.47319E-01 63180   0.116E+00    0.186E+00
DAV:   9    -0.125162419754E+04   -0.77021E-02   -0.71732E-02 64152   0.599E-01    0.106E+00
DAV:  10    -0.125162079285E+04    0.34047E-02   -0.14072E-02 62712   0.229E-01    0.713E-01
DAV:  11    -0.125161839903E+04    0.23938E-02   -0.14414E-02 63564   0.198E-01    0.367E-01
DAV:  12    -0.125161847220E+04   -0.73166E-04   -0.51825E-03 63972   0.133E-01    0.210E-01
DAV:  13    -0.125161862953E+04   -0.15734E-03   -0.98260E-04 60108   0.604E-02    0.155E-01
DAV:  14    -0.125161882130E+04   -0.19177E-03   -0.18685E-04 36204   0.299E-02    0.132E-01
DAV:  15    -0.125161918419E+04   -0.36288E-03   -0.22793E-04 37008   0.291E-02    0.110E-01
DAV:  16    -0.125161934837E+04   -0.16418E-03   -0.13712E-04 26580   0.212E-02    0.106E-01
DAV:  17    -0.125161948229E+04   -0.13392E-03   -0.59705E-05 25800   0.292E-02    0.866E-02
DAV:  18    -0.125161967910E+04   -0.19680E-03   -0.22091E-04 32448   0.311E-02    0.715E-02
DAV:  19    -0.125161977913E+04   -0.10003E-03   -0.17103E-04 27852   0.227E-02    0.690E-02
DAV:  20    -0.125161980921E+04   -0.30087E-04   -0.51036E-05 24684   0.234E-02
   2 F= -.12516198E+04 E0= -.12516198E+04  d E =-.447295E+01  mag=    39.8460
       N       E                     dE             d eps       ncg     rms          rms(c)
DAV:   1    -0.125719373739E+04   -0.55740E+01   -0.39899E+02 43704   0.285E+01    0.184E+01
DAV:   2    -0.125553850235E+04    0.16552E+01   -0.37930E+01 60228   0.127E+01    0.223E+01
DAV:   3    -0.125468311240E+04    0.85539E+00   -0.84845E+00 62424   0.459E+00    0.139E+01
DAV:   4    -0.125461858673E+04    0.64526E-01   -0.27989E+00 62856   0.312E+00    0.111E+01
DAV:   5    -0.125438158914E+04    0.23700E+00   -0.10880E+00 62280   0.214E+00    0.471E+00
DAV:   6    -0.125429381852E+04    0.87771E-01   -0.83998E-01 63336   0.145E+00    0.171E+00
DAV:   7    -0.125428781976E+04    0.59988E-02   -0.17854E-01 61788   0.709E-01    0.116E+00
DAV:   8    -0.125428140939E+04    0.64104E-02   -0.30007E-02 64224   0.484E-01    0.485E-01
DAV:   9    -0.125428086874E+04    0.54065E-03   -0.22236E-02 61992   0.260E-01    0.330E-01
DAV:  10    -0.125428070940E+04    0.15934E-03   -0.73009E-03 61560   0.134E-01    0.216E-01
DAV:  11    -0.125428056497E+04    0.14443E-03   -0.25038E-03 63432   0.796E-02    0.136E-01
DAV:  12    -0.125428058436E+04   -0.19387E-04   -0.45585E-04 44592   0.385E-02
   3 F= -.12542806E+04 E0= -.12542806E+04  d E =-.266078E+01  mag=    39.9041
       N       E                     dE             d eps       ncg     rms          rms(c)
DAV:   1    -0.125455790595E+04   -0.27734E+00   -0.24047E+02 43008   0.212E+01    0.676E+00
DAV:   2    -0.125531762829E+04   -0.75972E+00   -0.11353E+01 58068   0.595E+00    0.885E+00
DAV:   3    -0.125524470461E+04    0.72924E-01   -0.12397E+00 57240   0.186E+00    0.612E+00
DAV:   4    -0.125511191886E+04    0.13279E+00   -0.50931E-01 57396   0.107E+00    0.476E+00
DAV:   5    -0.125508757354E+04    0.24345E-01   -0.50328E-01 59148   0.121E+00    0.240E+00
DAV:   6    -0.125506272124E+04    0.24852E-01   -0.26155E-01 62952   0.885E-01    0.161E+00
DAV:   7    -0.125505080489E+04    0.11916E-01   -0.17497E-01 55104   0.584E-01    0.860E-01
DAV:   8    -0.125505169368E+04   -0.88880E-03   -0.24203E-02 56976   0.278E-01    0.417E-01
DAV:   9    -0.125505167658E+04    0.17105E-04   -0.79697E-03 62460   0.147E-01    0.283E-01
DAV:  10    -0.125505127892E+04    0.39766E-03   -0.14973E-03 60180   0.931E-02    0.230E-01
DAV:  11    -0.125505108401E+04    0.19491E-03   -0.12526E-03 59460   0.565E-02    0.127E-01
DAV:  12    -0.125505096607E+04    0.11794E-03   -0.70375E-04 45588   0.386E-02    0.764E-02
DAV:  13    -0.125505097178E+04   -0.57086E-05   -0.65940E-05 24828   0.173E-02
   4 F= -.12550510E+04 E0= -.12550510E+04  d E =-.770387E+00  mag=    39.9410
       N       E                     dE             d eps       ncg     rms          rms(c)
DAV:   1    -0.125561805562E+04   -0.56709E+00   -0.69975E+01 43200   0.120E+01    0.537E+00
DAV:   2    -0.125551192101E+04    0.10613E+00   -0.42951E+00 62448   0.380E+00    0.548E+00
DAV:   3    -0.125544510355E+04    0.66817E-01   -0.50498E-01 59556   0.136E+00    0.308E+00
DAV:   4    -0.125540888720E+04    0.36216E-01   -0.23003E-01 63528   0.762E-01    0.224E+00
DAV:   5    -0.125540061998E+04    0.82672E-02   -0.57973E-02 58992   0.517E-01    0.105E+00
DAV:   6    -0.125539730133E+04    0.33187E-02   -0.40450E-02 64824   0.384E-01    0.282E-01
DAV:   7    -0.125539801796E+04   -0.71664E-03   -0.10785E-02 62748   0.222E-01    0.313E-01
DAV:   8    -0.125539792499E+04    0.92970E-04   -0.15601E-03 61848   0.949E-02    0.141E-01
DAV:   9    -0.125539792643E+04   -0.14396E-05   -0.71229E-04 51696   0.429E-02
   5 F= -.12553979E+04 E0= -.12553979E+04  d E =-.346955E+00  mag=    39.9591
       N       E                     dE             d eps       ncg     rms          rms(c)
DAV:   1    -0.125557352545E+04   -0.17560E+00   -0.83779E+00 43776   0.419E+00    0.219E+00
DAV:   2    -0.125553273600E+04    0.40789E-01   -0.51307E-01 62856   0.126E+00    0.171E+00
DAV:   3    -0.125552411922E+04    0.86168E-02   -0.89162E-02 61932   0.579E-01    0.772E-01
DAV:   4    -0.125552076096E+04    0.33583E-02   -0.19723E-02 63828   0.243E-01    0.522E-01
DAV:   5    -0.125552011694E+04    0.64401E-03   -0.50991E-03 59268   0.140E-01    0.290E-01
DAV:   6    -0.125551985815E+04    0.25879E-03   -0.25830E-03 64596   0.866E-02    0.124E-01
DAV:   7    -0.125551984598E+04    0.12172E-04   -0.75742E-04 55140   0.517E-02
   6 F= -.12555198E+04 E0= -.12555198E+04  d E =-.121920E+00  mag=    39.9692
       N       E                     dE             d eps       ncg     rms          rms(c)
DAV:   1    -0.125551997627E+04   -0.11812E-03   -0.72283E+01 43008   0.119E+01    0.215E+00
DAV:   2    -0.125572615364E+04   -0.20618E+00   -0.21382E+00 54432   0.222E+00    0.170E+00
DAV:   3    -0.125572642373E+04   -0.27009E-03   -0.10305E-01 60180   0.545E-01    0.894E-01
DAV:   4    -0.125572059335E+04    0.58304E-02   -0.14748E-02 62172   0.242E-01    0.668E-01
DAV:   5    -0.125571756538E+04    0.30280E-02   -0.16642E-02 54132   0.231E-01    0.262E-01
DAV:   6    -0.125571766050E+04   -0.95121E-04   -0.54427E-03 57732   0.127E-01    0.163E-01
DAV:   7    -0.125571760948E+04    0.51015E-04   -0.22042E-03 59160   0.721E-02    0.972E-02
DAV:   8    -0.125571761584E+04   -0.63548E-05   -0.28985E-04 38616   0.356E-02
   7 F= -.12557176E+04 E0= -.12557176E+04  d E =-.197770E+00  mag=    39.9769
       N       E                     dE             d eps       ncg     rms          rms(c)
DAV:   1    -0.125578744056E+04   -0.69831E-01   -0.38280E+00 43392   0.292E+00    0.231E+00
DAV:   2    -0.125573969147E+04    0.47749E-01   -0.60364E-01 63060   0.149E+00    0.245E+00
DAV:   3    -0.125571996241E+04    0.19729E-01   -0.11239E-01 61524   0.590E-01    0.121E+00
DAV:   4    -0.125571768012E+04    0.22823E-02   -0.20682E-02 62952   0.240E-01    0.832E-01
DAV:   5    -0.125571664050E+04    0.10396E-02   -0.43613E-03 63504   0.169E-01    0.401E-01
DAV:   6    -0.125571626194E+04    0.37856E-03   -0.45022E-03 64032   0.108E-01    0.117E-01
DAV:   7    -0.125571624627E+04    0.15664E-04   -0.83264E-04 55176   0.633E-02
   8 F= -.12557162E+04 E0= -.12557162E+04  d E =0.136956E-02  mag=    39.9823
       N       E                     dE             d eps       ncg     rms          rms(c)
DAV:   1    -0.125554756565E+04    0.16870E+00   -0.13649E+02 43152   0.164E+01    0.262E+00
DAV:   2    -0.125592241136E+04   -0.37485E+00   -0.40709E+00 55272   0.319E+00    0.254E+00
DAV:   3    -0.125591937283E+04    0.30385E-02   -0.25207E-01 60264   0.859E-01    0.131E+00
DAV:   4    -0.125590849371E+04    0.10879E-01   -0.30109E-02 62808   0.362E-01    0.107E+00
DAV:   5    -0.125590149145E+04    0.70023E-02   -0.28628E-02 54540   0.348E-01    0.527E-01
DAV:   6    -0.125590207835E+04   -0.58690E-03   -0.20706E-02 60492   0.225E-01    0.272E-01
DAV:   7    -0.125590185993E+04    0.21841E-03   -0.51201E-03 61644   0.116E-01    0.163E-01
DAV:   8    -0.125590188916E+04   -0.29229E-04   -0.82535E-04 50208   0.572E-02
   9 F= -.12559019E+04 E0= -.12559019E+04  d E =-.185643E+00  mag=    39.9869
       N       E                     dE             d eps       ncg     rms          rms(c)
DAV:   1    -0.125590878420E+04   -0.69243E-02   -0.64048E+00 43032   0.351E+00    0.125E+00
DAV:   2    -0.125592460464E+04   -0.15820E-01   -0.29369E-01 58848   0.101E+00    0.131E+00
DAV:   3    -0.125592338078E+04    0.12239E-02   -0.47267E-02 62136   0.359E-01    0.772E-01
DAV:   4    -0.125592177828E+04    0.16025E-02   -0.14341E-02 64512   0.203E-01    0.596E-01
DAV:   5    -0.125592136894E+04    0.40934E-03   -0.66106E-03 54924   0.137E-01    0.265E-01
DAV:   6    -0.125592100076E+04    0.36818E-03   -0.34995E-03 63996   0.109E-01    0.120E-01
DAV:   7    -0.125592105511E+04   -0.54353E-04   -0.22012E-03 58872   0.734E-02    0.872E-02
DAV:   8    -0.125592102524E+04    0.29870E-04   -0.22785E-04 33396   0.441E-02
  10 F= -.12559210E+04 E0= -.12559210E+04  d E =-.191361E-01  mag=    39.9902
       N       E                     dE             d eps       ncg     rms          rms(c)
DAV:   1    -0.125594161880E+04   -0.20564E-01   -0.25011E+00 43056   0.223E+00    0.705E-01
DAV:   2    -0.125594463544E+04   -0.30166E-02   -0.11596E-01 58332   0.593E-01    0.779E-01
DAV:   3    -0.125594329040E+04    0.13450E-02   -0.13390E-02 61476   0.204E-01    0.467E-01
DAV:   4    -0.125594258389E+04    0.70651E-03   -0.55428E-03 63000   0.137E-01    0.356E-01
DAV:   5    -0.125594238012E+04    0.20377E-03   -0.23709E-03 56256   0.864E-02    0.172E-01
DAV:   6    -0.125594226705E+04    0.11307E-03   -0.13446E-03 62076   0.624E-02    0.810E-02
DAV:   7    -0.125594228382E+04   -0.16769E-04   -0.41562E-04 42084   0.325E-02
  11 F= -.12559423E+04 E0= -.12559423E+04  d E =-.212586E-01  mag=    39.9925
       N       E                     dE             d eps       ncg     rms          rms(c)
DAV:   1    -0.125594933153E+04   -0.70645E-02   -0.53372E+00 43056   0.324E+00    0.550E-01
DAV:   2    -0.125596488362E+04   -0.15552E-01   -0.15215E-01 53268   0.601E-01    0.446E-01
DAV:   3    -0.125596502981E+04   -0.14619E-03   -0.68545E-03 60552   0.143E-01    0.241E-01
DAV:   4    -0.125596470386E+04    0.32594E-03   -0.11004E-03 57180   0.668E-02    0.187E-01
DAV:   5    -0.125596449290E+04    0.21096E-03   -0.85507E-04 51528   0.661E-02    0.701E-02
DAV:   6    -0.125596454540E+04   -0.52497E-04   -0.67263E-04 49272   0.414E-02
  12 F= -.12559645E+04 E0= -.12559645E+04  d E =-.222616E-01  mag=    39.9940
       N       E                     dE             d eps       ncg     rms          rms(c)
DAV:   1    -0.125597186966E+04   -0.73768E-02   -0.15496E+00 43248   0.173E+00    0.423E-01
DAV:   2    -0.125597633072E+04   -0.44611E-02   -0.43597E-02 54324   0.334E-01    0.281E-01
DAV:   3    -0.125597670219E+04   -0.37148E-03   -0.44935E-03 60240   0.105E-01    0.163E-01
DAV:   4    -0.125597655157E+04    0.15063E-03   -0.57788E-04 47232   0.429E-02    0.102E-01
DAV:   5    -0.125597650676E+04    0.44806E-04   -0.52915E-04 45780   0.368E-02
  13 F= -.12559765E+04 E0= -.12559765E+04  d E =-.119614E-01  mag=    39.9951
       N       E                     dE             d eps       ncg     rms          rms(c)
DAV:   1    -0.125598177594E+04   -0.52244E-02   -0.30502E+00 43080   0.245E+00    0.468E-01
DAV:   2    -0.125599080806E+04   -0.90321E-02   -0.91313E-02 53340   0.476E-01    0.419E-01
DAV:   3    -0.125599087116E+04   -0.63103E-04   -0.56447E-03 59388   0.127E-01    0.224E-01
DAV:   4    -0.125599054519E+04    0.32597E-03   -0.16542E-03 58404   0.857E-02    0.183E-01
DAV:   5    -0.125599051404E+04    0.31145E-04   -0.13247E-03 54840   0.714E-02    0.885E-02
DAV:   6    -0.125599047815E+04    0.35889E-04   -0.66505E-04 47976   0.444E-02
  14 F= -.12559905E+04 E0= -.12559905E+04  d E =-.139714E-01  mag=    39.9961
       N       E                     dE             d eps       ncg     rms          rms(c)
DAV:   1    -0.125599571868E+04   -0.52046E-02   -0.56335E-01 43296   0.105E+00    0.240E-01
DAV:   2    -0.125599740868E+04   -0.16900E-02   -0.17998E-02 56244   0.214E-01    0.236E-01
DAV:   3    -0.125599738384E+04    0.24845E-04   -0.15077E-03 57984   0.642E-02    0.124E-01
DAV:   4    -0.125599732288E+04    0.60950E-04   -0.49472E-04 47244   0.417E-02
  15 F= -.12559973E+04 E0= -.12559973E+04  d E =-.684473E-02  mag=    39.9966
       N       E                     dE             d eps       ncg     rms          rms(c)
DAV:   1    -0.125600087259E+04   -0.34888E-02   -0.37616E+00 43080   0.271E+00    0.525E-01
DAV:   2    -0.125601212724E+04   -0.11255E-01   -0.10285E-01 52068   0.483E-01    0.330E-01
DAV:   3    -0.125601256700E+04   -0.43976E-03   -0.51453E-03 59880   0.108E-01    0.163E-01
DAV:   4    -0.125601230284E+04    0.26416E-03   -0.79295E-04 53820   0.610E-02    0.116E-01
DAV:   5    -0.125601223891E+04    0.63933E-04   -0.96148E-04 52932   0.563E-02
  16 F= -.12560122E+04 E0= -.12560122E+04  d E =-.149160E-01  mag=    39.9972
       N       E                     dE             d eps       ncg     rms          rms(c)
DAV:   1    -0.125596623801E+04    0.46065E-01   -0.25454E+01 43008   0.704E+00    0.151E+00
DAV:   2    -0.125604401404E+04   -0.77776E-01   -0.69614E-01 49608   0.123E+00    0.817E-01
DAV:   3    -0.125604766615E+04   -0.36521E-02   -0.29869E-02 60720   0.266E-01    0.402E-01
DAV:   4    -0.125604603156E+04    0.16346E-02   -0.59362E-03 62532   0.145E-01    0.258E-01
DAV:   5    -0.125604549572E+04    0.53584E-03   -0.32768E-03 61620   0.111E-01    0.143E-01
DAV:   6    -0.125604549919E+04   -0.34787E-05   -0.11502E-03 54852   0.573E-02    0.842E-02
DAV:   7    -0.125604549059E+04    0.86059E-05   -0.27431E-04 32892   0.390E-02
  17 F= -.12560455E+04 E0= -.12560455E+04  d E =-.332517E-01  mag=    39.9979
       N       E                     dE             d eps       ncg     rms          rms(c)
DAV:   1    -0.125600732520E+04    0.38174E-01   -0.19820E+01 43032   0.622E+00    0.125E+00
DAV:   2    -0.125606855701E+04   -0.61232E-01   -0.54213E-01 49728   0.109E+00    0.731E-01
DAV:   3    -0.125607110118E+04   -0.25442E-02   -0.21754E-02 60108   0.218E-01    0.366E-01
DAV:   4    -0.125606981895E+04    0.12822E-02   -0.37604E-03 62832   0.126E-01    0.239E-01
DAV:   5    -0.125606952577E+04    0.29318E-03   -0.34178E-03 57396   0.101E-01    0.104E-01
DAV:   6    -0.125606952017E+04    0.55973E-05   -0.88535E-04 52572   0.570E-02
  18 F= -.12560695E+04 E0= -.12560695E+04  d E =-.240296E-01  mag=    39.9983
       N       E                     dE             d eps       ncg     rms          rms(c)
DAV:   1    -0.125607046290E+04   -0.93713E-03   -0.19840E+00 43116   0.198E+00    0.324E-01
DAV:   2    -0.125607584390E+04   -0.53810E-02   -0.56291E-02 51384   0.353E-01    0.202E-01
DAV:   3    -0.125607590868E+04   -0.64785E-04   -0.22598E-03 59760   0.761E-02    0.117E-01
DAV:   4    -0.125607578225E+04    0.12643E-03   -0.42135E-04 43548   0.446E-02    0.877E-02
DAV:   5    -0.125607574492E+04    0.37333E-04   -0.34301E-04 37344   0.411E-02
  19 F= -.12560757E+04 E0= -.12560757E+04  d E =-.622474E-02  mag=    39.9986
       N       E                     dE             d eps       ncg     rms          rms(c)
DAV:   1    -0.125607680234E+04   -0.10201E-02   -0.16811E+00 43104   0.181E+00    0.375E-01
DAV:   2    -0.125608146749E+04   -0.46651E-02   -0.46383E-02 51876   0.323E-01    0.240E-01
DAV:   3    -0.125608158820E+04   -0.12072E-03   -0.25235E-03 58404   0.831E-02    0.112E-01
DAV:   4    -0.125608145557E+04    0.13264E-03   -0.49189E-04 45540   0.452E-02    0.829E-02
DAV:   5    -0.125608143105E+04    0.24516E-04   -0.29619E-04 33084   0.349E-02
  20 F= -.12560814E+04 E0= -.12560814E+04  d E =-.568613E-02  mag=    39.9988
       N       E                     dE             d eps       ncg     rms          rms(c)
DAV:   1    -0.125606310108E+04    0.18354E-01   -0.10322E+01 43080   0.449E+00    0.824E-01
DAV:   2    -0.125609350502E+04   -0.30404E-01   -0.27902E-01 47748   0.782E-01    0.463E-01
DAV:   3    -0.125609451599E+04   -0.10110E-02   -0.10573E-02 60252   0.148E-01    0.240E-01
DAV:   4    -0.125609389147E+04    0.62452E-03   -0.17508E-03 59088   0.841E-02    0.157E-01
DAV:   5    -0.125609366142E+04    0.23006E-03   -0.15175E-03 59892   0.813E-02    0.774E-02
DAV:   6    -0.125609369369E+04   -0.32278E-04   -0.57447E-04 47856   0.418E-02
  21 F= -.12560937E+04 E0= -.12560937E+04  d E =-.122626E-01  mag=    39.9991
       N       E                     dE             d eps       ncg     rms          rms(c)
DAV:   1    -0.125609360238E+04    0.59037E-04   -0.14106E-01 43536   0.524E-01    0.124E-01
DAV:   2    -0.125609396029E+04   -0.35791E-03   -0.47778E-03 55632   0.124E-01    0.128E-01
DAV:   3    -0.125609397567E+04   -0.15380E-04   -0.62706E-04 48660   0.413E-02
  22 F= -.12560940E+04 E0= -.12560940E+04  d E =-.281974E-03  mag=    39.9991
       N       E                     dE             d eps       ncg     rms          rms(c)
DAV:   1    -0.125609506297E+04   -0.11027E-02   -0.69198E-01 43128   0.116E+00    0.201E-01
DAV:   2    -0.125609703500E+04   -0.19720E-02   -0.19575E-02 51708   0.213E-01    0.138E-01
DAV:   3    -0.125609705955E+04   -0.24545E-04   -0.89431E-04 53436   0.506E-02
  23 F= -.12560971E+04 E0= -.12560971E+04  d E =-.308388E-02  mag=    39.9992
       N       E                     dE             d eps       ncg     rms          rms(c)
DAV:   1    -0.125609850894E+04   -0.14739E-02   -0.47553E-01 43080   0.966E-01    0.192E-01
DAV:   2    -0.125609950719E+04   -0.99825E-03   -0.12886E-02 51804   0.174E-01    0.122E-01
DAV:   3    -0.125609946900E+04    0.38188E-04   -0.68952E-04 51264   0.488E-02
  24 F= -.12560995E+04 E0= -.12560995E+04  d E =-.240945E-02  mag=    39.9993
       N       E                     dE             d eps       ncg     rms          rms(c)
DAV:   1    -0.125610067248E+04   -0.11653E-02   -0.36126E-01 43152   0.836E-01    0.164E-01
DAV:   2    -0.125610157464E+04   -0.90216E-03   -0.90524E-03 49944   0.143E-01    0.108E-01
DAV:   3    -0.125610157398E+04    0.66427E-06   -0.36724E-04 38580   0.335E-02
  25 F= -.12561016E+04 E0= -.12561016E+04  d E =-.210498E-02  mag=    39.9993
       N       E                     dE             d eps       ncg     rms          rms(c)
DAV:   1    -0.125610260742E+04   -0.10328E-02   -0.24415E-01 43296   0.690E-01    0.131E-01
DAV:   2    -0.125610325044E+04   -0.64303E-03   -0.63135E-03 49356   0.120E-01    0.892E-02
DAV:   3    -0.125610323909E+04    0.11351E-04   -0.20765E-04 32628   0.265E-02
  26 F= -.12561032E+04 E0= -.12561032E+04  d E =-.166512E-02  mag=    39.9994
       N       E                     dE             d eps       ncg     rms          rms(c)
DAV:   1    -0.125610418797E+04   -0.93753E-03   -0.63554E-01 43152   0.111E+00    0.203E-01
DAV:   2    -0.125610587131E+04   -0.16833E-02   -0.16431E-02 49140   0.189E-01    0.115E-01
DAV:   3    -0.125610590772E+04   -0.36407E-04   -0.70925E-04 50868   0.421E-02
  27 F= -.12561059E+04 E0= -.12561059E+04  d E =-.266863E-02  mag=    39.9995
       N       E                     dE             d eps       ncg     rms          rms(c)
DAV:   1    -0.125609886886E+04    0.70024E-02   -0.52625E+00 43152   0.320E+00    0.558E-01
DAV:   2    -0.125611304150E+04   -0.14173E-01   -0.13562E-01 47844   0.541E-01    0.310E-01
DAV:   3    -0.125611333627E+04   -0.29477E-03   -0.53408E-03 62196   0.103E-01    0.177E-01
DAV:   4    -0.125611300139E+04    0.33488E-03   -0.69634E-04 50160   0.504E-02    0.113E-01
DAV:   5    -0.125611285300E+04    0.14839E-03   -0.69944E-04 48432   0.538E-02    0.428E-02
DAV:   6    -0.125611287259E+04   -0.19590E-04   -0.24594E-04 30024   0.277E-02
  28 F= -.12561129E+04 E0= -.12561129E+04  d E =-.696487E-02  mag=    39.9996
       N       E                     dE             d eps       ncg     rms          rms(c)
DAV:   1    -0.125606728949E+04    0.45564E-01   -0.19975E+01 43056   0.624E+00    0.109E+00
DAV:   2    -0.125612418465E+04   -0.56895E-01   -0.53249E-01 47448   0.107E+00    0.575E-01
DAV:   3    -0.125612600220E+04   -0.18176E-02   -0.20174E-02 61284   0.196E-01    0.311E-01
DAV:   4    -0.125612499503E+04    0.10072E-02   -0.26636E-03 61296   0.959E-02    0.200E-01
DAV:   5    -0.125612443676E+04    0.55827E-03   -0.19400E-03 60612   0.102E-01    0.991E-02
DAV:   6    -0.125612452359E+04   -0.86838E-04   -0.10667E-03 50484   0.491E-02    0.595E-02
DAV:   7    -0.125612451344E+04    0.10158E-04   -0.10608E-04 26664   0.247E-02
  29 F= -.12561245E+04 E0= -.12561245E+04  d E =-.116408E-01  mag=    39.9997
       N       E                     dE             d eps       ncg     rms          rms(c)
DAV:   1    -0.125610918049E+04    0.15343E-01   -0.39192E+00 43200   0.277E+00    0.451E-01
DAV:   2    -0.125611999704E+04   -0.10817E-01   -0.10339E-01 48720   0.477E-01    0.283E-01
DAV:   3    -0.125612021465E+04   -0.21761E-03   -0.39227E-03 61884   0.918E-02    0.157E-01
DAV:   4    -0.125611997673E+04    0.23792E-03   -0.43658E-04 42828   0.432E-02    0.114E-01
DAV:   5    -0.125611983073E+04    0.14600E-03   -0.67465E-04 47748   0.554E-02    0.407E-02
DAV:   6    -0.125611984946E+04   -0.18735E-04   -0.30430E-04 35424   0.293E-02
  30 F= -.12561198E+04 E0= -.12561198E+04  d E =0.466397E-02  mag=    39.9997
       N       E                     dE             d eps       ncg     rms          rms(c)
DAV:   1    -0.125611775516E+04    0.20756E-02   -0.20289E+00 43200   0.199E+00    0.329E-01
DAV:   2    -0.125612339707E+04   -0.56419E-02   -0.52558E-02 47640   0.337E-01    0.187E-01
DAV:   3    -0.125612352217E+04   -0.12510E-03   -0.18301E-03 59208   0.598E-02    0.963E-02
DAV:   4    -0.125612339027E+04    0.13190E-03   -0.18532E-04 31776   0.309E-02    0.665E-02
DAV:   5    -0.125612335192E+04    0.38344E-04   -0.36916E-04 35268   0.375E-02
  31 F= -.12561234E+04 E0= -.12561234E+04  d E =-.350246E-02  mag=    39.9998
       N       E                     dE             d eps       ncg     rms          rms(c)
DAV:   1    -0.125612365774E+04   -0.26748E-03   -0.29863E-01 43080   0.757E-01    0.208E-01
DAV:   2    -0.125612452021E+04   -0.86247E-03   -0.97181E-03 53376   0.152E-01    0.161E-01
DAV:   3    -0.125612454419E+04   -0.23979E-04   -0.65714E-04 48432   0.460E-02
  32 F= -.12561245E+04 E0= -.12561245E+04  d E =-.119227E-02  mag=    39.9998
       N       E                     dE             d eps       ncg     rms          rms(c)
DAV:   1    -0.125612520988E+04   -0.68967E-03   -0.24733E-01 43080   0.693E-01    0.150E-01
DAV:   2    -0.125612586390E+04   -0.65402E-03   -0.72780E-03 55044   0.133E-01    0.119E-01
DAV:   3    -0.125612583134E+04    0.32558E-04   -0.49167E-04 45528   0.407E-02
  33 F= -.12561258E+04 E0= -.12561258E+04  d E =-.128715E-02  mag=    39.9998
       N       E                     dE             d eps       ncg     rms          rms(c)
DAV:   1    -0.125612499781E+04    0.86609E-03   -0.76396E-02 43104   0.388E-01    0.108E-01
DAV:   2    -0.125612517791E+04   -0.18010E-03   -0.26106E-03 56604   0.824E-02    0.705E-02
DAV:   3    -0.125612517684E+04    0.10639E-05   -0.20310E-04 30936   0.304E-02
  34 F= -.12561252E+04 E0= -.12561252E+04  d E =0.654498E-03  mag=    39.9998
       N       E                     dE             d eps       ncg     rms          rms(c)
DAV:   1    -0.125612515402E+04    0.23885E-04   -0.17675E-04 24132   0.214E-02    0.270E-02
DAV:   2    -0.125612515604E+04   -0.20163E-05   -0.30887E-05 22764   0.131E-02
  35 F= -.12561252E+04 E0= -.12561252E+04  d E =0.208048E-04  mag=    39.9998
       N       E                     dE             d eps       ncg     rms          rms(c)
DAV:   1    -0.125612549701E+04   -0.34299E-03   -0.75492E-02 44568   0.400E-01    0.207E-01
DAV:   2    -0.125612511396E+04    0.38306E-03   -0.39590E-03 56868   0.997E-02    0.119E-01
DAV:   3    -0.125612505600E+04    0.57955E-04   -0.52970E-04 44784   0.544E-02
  36 F= -.12561251E+04 E0= -.12561251E+04  d E =0.100039E-03  mag=    39.9999
       N       E                     dE             d eps       ncg     rms          rms(c)
DAV:   1    -0.125612536035E+04   -0.24639E-03   -0.36267E-02 43176   0.265E-01    0.778E-02
DAV:   2    -0.125612549055E+04   -0.13020E-03   -0.14790E-03 56232   0.613E-02    0.747E-02
DAV:   3    -0.125612547738E+04    0.13166E-04   -0.78742E-05 23904   0.187E-02
  37 F= -.12561255E+04 E0= -.12561255E+04  d E =-.421380E-03  mag=    39.9999
       N       E                     dE             d eps       ncg     rms          rms(c)
DAV:   1    -0.125612598994E+04   -0.49939E-03   -0.14924E-01 43080   0.546E-01    0.127E-01
DAV:   2    -0.125612623547E+04   -0.24553E-03   -0.47022E-03 54204   0.108E-01    0.922E-02
DAV:   3    -0.125612621668E+04    0.18788E-04   -0.17935E-04 32076   0.317E-02
  38 F= -.12561262E+04 E0= -.12561262E+04  d E =-.739299E-03  mag=    39.9999
       N       E                     dE             d eps       ncg     rms          rms(c)
DAV:   1    -0.125612671239E+04   -0.47692E-03   -0.10248E-01 43056   0.443E-01    0.100E-01
DAV:   2    -0.125612692580E+04   -0.21341E-03   -0.30291E-03 54828   0.828E-02    0.748E-02
DAV:   3    -0.125612690437E+04    0.21436E-04   -0.15816E-04 28860   0.250E-02
  39 F= -.12561269E+04 E0= -.12561269E+04  d E =-.687686E-03  mag=    39.9999
       N       E                     dE             d eps       ncg     rms          rms(c)
DAV:   1    -0.125612683045E+04    0.95348E-04   -0.10786E+00 43056   0.145E+00    0.278E-01
DAV:   2    -0.125612922481E+04   -0.23944E-02   -0.29864E-02 52488   0.259E-01    0.191E-01
DAV:   3    -0.125612921097E+04    0.13844E-04   -0.17181E-03 57984   0.735E-02    0.890E-02
DAV:   4    -0.125612912460E+04    0.86369E-04   -0.18889E-04 30744   0.301E-02
  40 F= -.12561291E+04 E0= -.12561291E+04  d E =-.222023E-02  mag=    39.9999
       N       E                     dE             d eps       ncg     rms          rms(c)
DAV:   1    -0.125612955251E+04   -0.34154E-03   -0.90631E-02 43104   0.424E-01    0.127E-01
DAV:   2    -0.125612975625E+04   -0.20374E-03   -0.29442E-03 56592   0.915E-02    0.100E-01
DAV:   3    -0.125612973956E+04    0.16685E-04   -0.18066E-04 32508   0.310E-02
  41 F= -.12561297E+04 E0= -.12561297E+04  d E =-.614961E-03  mag=    39.9999
       N       E                     dE             d eps       ncg     rms          rms(c)
DAV:   1    -0.125613014361E+04   -0.38736E-03   -0.13152E-01 43056   0.505E-01    0.113E-01
DAV:   2    -0.125613054065E+04   -0.39704E-03   -0.36622E-03 50988   0.905E-02    0.692E-02
DAV:   3    -0.125613054231E+04   -0.16595E-05   -0.11162E-04 26580   0.212E-02
  42 F= -.12561305E+04 E0= -.12561305E+04  d E =-.802745E-03  mag=    39.9999
       N       E                     dE             d eps       ncg     rms          rms(c)
DAV:   1    -0.125613075544E+04   -0.21480E-03   -0.33700E-01 43032   0.808E-01    0.182E-01
DAV:   2    -0.125613175253E+04   -0.99709E-03   -0.90554E-03 52716   0.145E-01    0.115E-01
DAV:   3    -0.125613178721E+04   -0.34676E-04   -0.46117E-04 44184   0.364E-02
  43 F= -.12561318E+04 E0= -.12561318E+04  d E =-.124490E-02  mag=    39.9999
       N       E                     dE             d eps       ncg     rms          rms(c)
DAV:   1    -0.125613053641E+04    0.12161E-02   -0.11805E+00 43008   0.151E+00    0.301E-01
DAV:   2    -0.125613394978E+04   -0.34134E-02   -0.30542E-02 48408   0.258E-01    0.163E-01
DAV:   3    -0.125613406646E+04   -0.11668E-03   -0.12098E-03 57084   0.500E-02    0.924E-02
DAV:   4    -0.125613398915E+04    0.77306E-04   -0.11344E-04 27108   0.232E-02
  44 F= -.12561340E+04 E0= -.12561340E+04  d E =-.220194E-02  mag=    39.9999
       N       E                     dE             d eps       ncg     rms          rms(c)
DAV:   1    -0.125612729243E+04    0.67740E-02   -0.13265E+00 43020   0.161E+00    0.328E-01
DAV:   2    -0.125613155886E+04   -0.42664E-02   -0.36637E-02 49884   0.283E-01    0.173E-01
DAV:   3    -0.125613176086E+04   -0.20200E-03   -0.13714E-03 57024   0.555E-02    0.926E-02
DAV:   4    -0.125613170254E+04    0.58319E-04   -0.99293E-05 26928   0.201E-02
  45 F= -.12561317E+04 E0= -.12561317E+04  d E =0.228661E-02  mag=    39.9999
       N       E                     dE             d eps       ncg     rms          rms(c)
DAV:   1    -0.125612780509E+04    0.39558E-02   -0.71447E-01 43008   0.118E+00    0.246E-01
DAV:   2    -0.125612982433E+04   -0.20192E-02   -0.17821E-02 48960   0.198E-01    0.132E-01
DAV:   3    -0.125612989535E+04   -0.71018E-04   -0.66146E-04 50088   0.383E-02
  46 F= -.12561299E+04 E0= -.12561299E+04  d E =0.180719E-02  mag=    40.0000
       N       E                     dE             d eps       ncg     rms          rms(c)
DAV:   1    -0.125612479228E+04    0.50321E-02   -0.27030E+00 43104   0.230E+00    0.455E-01
DAV:   2    -0.125613303722E+04   -0.82449E-02   -0.73128E-02 48348   0.397E-01    0.230E-01
DAV:   3    -0.125613345413E+04   -0.41691E-03   -0.28342E-03 60000   0.780E-02    0.101E-01
DAV:   4    -0.125613332783E+04    0.12630E-03   -0.27946E-04 35232   0.342E-02    0.654E-02
DAV:   5    -0.125613325544E+04    0.72386E-04   -0.20966E-04 27228   0.376E-02
  47 F= -.12561333E+04 E0= -.12561333E+04  d E =-.336009E-02  mag=    40.0000
       N       E                     dE             d eps       ncg     rms          rms(c)
DAV:   1    -0.125613363380E+04   -0.30597E-03   -0.99992E-02 43128   0.440E-01    0.955E-02
DAV:   2    -0.125613389315E+04   -0.25935E-03   -0.26762E-03 50460   0.791E-02    0.511E-02
DAV:   3    -0.125613390027E+04   -0.71213E-05   -0.10711E-04 24576   0.183E-02
  48 F= -.12561339E+04 E0= -.12561339E+04  d E =-.644824E-03  mag=    40.0000
       N       E                     dE             d eps       ncg     rms          rms(c)
DAV:   1    -0.125613418495E+04   -0.29181E-03   -0.35303E-02 43788   0.271E-01    0.127E-01
DAV:   2    -0.125613412104E+04    0.63914E-04   -0.22456E-03 61680   0.858E-02    0.121E-01
DAV:   3    -0.125613407095E+04    0.50093E-04   -0.26516E-04 37356   0.336E-02
  49 F= -.12561341E+04 E0= -.12561341E+04  d E =-.170680E-03  mag=    40.0000
       N       E                     dE             d eps       ncg     rms          rms(c)
DAV:   1    -0.125613451907E+04   -0.39803E-03   -0.12188E-01 43092   0.491E-01    0.144E-01
DAV:   2    -0.125613481037E+04   -0.29130E-03   -0.41659E-03 57468   0.104E-01    0.107E-01
DAV:   3    -0.125613479948E+04    0.10883E-04   -0.33440E-04 39576   0.384E-02
  50 F= -.12561348E+04 E0= -.12561348E+04  d E =-.728536E-03  mag=    40.0000
       N       E                     dE             d eps       ncg     rms          rms(c)
DAV:   1    -0.125613519125E+04   -0.38089E-03   -0.19519E-01 43128   0.617E-01    0.155E-01
DAV:   2    -0.125613563163E+04   -0.44037E-03   -0.56412E-03 53448   0.117E-01    0.108E-01
DAV:   3    -0.125613561843E+04    0.13199E-04   -0.38328E-04 40392   0.380E-02
  51 F= -.12561356E+04 E0= -.12561356E+04  d E =-.818944E-03  mag=    40.0000
       N       E                     dE             d eps       ncg     rms          rms(c)
DAV:   1    -0.125613590531E+04   -0.27369E-03   -0.50416E-02 43200   0.315E-01    0.756E-02
DAV:   2    -0.125613602859E+04   -0.12328E-03   -0.16842E-03 56112   0.703E-02    0.747E-02
DAV:   3    -0.125613601030E+04    0.18285E-04   -0.11148E-04 27144   0.232E-02
  52 F= -.12561360E+04 E0= -.12561360E+04  d E =-.391878E-03  mag=    40.0000
       N       E                     dE             d eps       ncg     rms          rms(c)
DAV:   1    -0.125613630620E+04   -0.27761E-03   -0.11060E-01 43200   0.463E-01    0.907E-02
DAV:   2    -0.125613661942E+04   -0.31321E-03   -0.28539E-03 51276   0.793E-02    0.564E-02
DAV:   3    -0.125613662217E+04   -0.27541E-05   -0.77841E-05 24144   0.178E-02
  53 F= -.12561366E+04 E0= -.12561366E+04  d E =-.611868E-03  mag=    40.0000
       N       E                     dE             d eps       ncg     rms          rms(c)
DAV:   1    -0.125613691186E+04   -0.29244E-03   -0.15908E-01 43272   0.556E-01    0.100E-01
DAV:   2    -0.125613734001E+04   -0.42815E-03   -0.41407E-03 51072   0.945E-02    0.584E-02
DAV:   3    -0.125613734026E+04   -0.25777E-06   -0.12049E-04 26820   0.182E-02
  54 F= -.12561373E+04 E0= -.12561373E+04  d E =-.718092E-03  mag=    40.0000
       N       E                     dE             d eps       ncg     rms          rms(c)
DAV:   1    -0.125613747284E+04   -0.13283E-03   -0.36165E-01 43152   0.838E-01    0.156E-01
DAV:   2    -0.125613840497E+04   -0.93213E-03   -0.93536E-03 48888   0.141E-01    0.850E-02
DAV:   3    -0.125613841399E+04   -0.90261E-05   -0.35129E-04 39684   0.310E-02
  55 F= -.12561384E+04 E0= -.12561384E+04  d E =-.107373E-02  mag=    40.0000
       N       E                     dE             d eps       ncg     rms          rms(c)
DAV:   1    -0.125613109727E+04    0.73077E-02   -0.38568E+00 43128   0.274E+00    0.475E-01
DAV:   2    -0.125614164360E+04   -0.10546E-01   -0.99856E-02 47808   0.462E-01    0.251E-01
DAV:   3    -0.125614189084E+04   -0.24723E-03   -0.37138E-03 61476   0.833E-02    0.136E-01
DAV:   4    -0.125614164136E+04    0.24948E-03   -0.48377E-04 43116   0.452E-02    0.806E-02
DAV:   5    -0.125614155060E+04    0.90759E-04   -0.37499E-04 37032   0.468E-02
