       N       E                     dE             d eps       ncg     rms          rms(c)
DAV:   1     0.110946258974E+05    0.11095E+05   -0.39365E+05 21504   0.125E+03
DAV:   2     0.103736334395E+04   -0.10057E+05   -0.92591E+04 22200   0.350E+02
DAV:   3    -0.142910977160E+04   -0.24665E+04   -0.23856E+04 24144   0.180E+02
DAV:   4    -0.165062944552E+04   -0.22152E+03   -0.21808E+03 32496   0.605E+01
DAV:   5    -0.165909651796E+04   -0.84671E+01   -0.83477E+01 33720   0.136E+01
DAV:   6    -0.165949308829E+04   -0.39657E+00   -0.39297E+00 34032   0.251E+00
DAV:   7    -0.165951676003E+04   -0.23672E-01   -0.23559E-01 34116   0.616E-01
DAV:   8    -0.165951849946E+04   -0.17394E-02   -0.17348E-02 31548   0.142E-01
DAV:   9    -0.165951864038E+04   -0.14092E-03   -0.14066E-03 22128   0.418E-02
DAV:  10    -0.165951865286E+04   -0.12486E-04   -0.12445E-04 18132   0.159E-02
DAV:  11    -0.165951865531E+04   -0.24434E-05   -0.24269E-05 16920   0.996E-03
DAV:  12    -0.165951865658E+04   -0.12704E-05   -0.12613E-05 16440   0.719E-03    0.162E+02
DAV:  13    -0.122216001188E+04    0.43736E+03   -0.25617E+03 31668   0.800E+01    0.106E+02
DAV:  14    -0.125739834658E+04   -0.35238E+02   -0.69770E+02 34092   0.544E+01    0.693E+01
DAV:  15    -0.125713714743E+04    0.26120E+00   -0.10234E+02 31212   0.267E+01    0.470E+01
DAV:  16    -0.125744631422E+04   -0.30917E+00   -0.60608E+01 34464   0.243E+01    0.406E+01
DAV:  17    -0.125692366035E+04    0.52265E+00   -0.26738E+01 31848   0.899E+00    0.171E+01
DAV:  18    -0.125598100481E+04    0.94266E+00   -0.84422E+00 32748   0.939E+00    0.876E+00
DAV:  19    -0.125544053195E+04    0.54047E+00   -0.47042E+00 31848   0.396E+00    0.243E+00
DAV:  20    -0.125555322081E+04   -0.11269E+00   -0.81277E-01 29232   0.160E+00    0.302E+00
DAV:  21    -0.125555101994E+04    0.22009E-02   -0.16146E-01 32232   0.103E+00    0.939E-01
DAV:  22    -0.125555590887E+04   -0.48889E-02   -0.58558E-02 31548   0.556E-01    0.633E-01
DAV:  23    -0.125555618301E+04   -0.27414E-03   -0.10703E-02 28788   0.224E-01    0.338E-01
DAV:  24    -0.125555594639E+04    0.23662E-03   -0.52566E-03 31968   0.118E-01    0.231E-01
DAV:  25    -0.125555572917E+04    0.21722E-03   -0.16677E-03 30444   0.724E-02    0.120E-01
DAV:  26    -0.125555569438E+04    0.34786E-04   -0.48118E-04 23352   0.400E-02
   1 F= -.12555557E+04 E0= -.12555557E+04  d E =-.125556E+04  mag=    39.9379
       N       E                     dE             d eps       ncg     rms          rms(c)
DAV:   1    -0.125722137733E+04   -0.16656E+01   -0.53699E+02 21504   0.329E+01    0.150E+01
DAV:   2    -0.125688368268E+04    0.33769E+00   -0.26405E+01 31452   0.942E+00    0.116E+01
DAV:   3    -0.125660223378E+04    0.28145E+00   -0.26666E+00 29880   0.443E+00    0.976E+00
DAV:   4    -0.125655650906E+04    0.45725E-01   -0.35282E-01 31956   0.116E+00    0.760E+00
DAV:   5    -0.125650630322E+04    0.50206E-01   -0.44799E-01 31716   0.126E+00    0.270E+00
DAV:   6    -0.125649736455E+04    0.89387E-02   -0.21040E-01 30252   0.754E-01    0.811E-01
DAV:   7    -0.125649375178E+04    0.36128E-02   -0.49664E-02 30324   0.435E-01    0.531E-01
DAV:   8    -0.125649358169E+04    0.17009E-03   -0.65583E-03 30924   0.135E-01    0.252E-01
DAV:   9    -0.125649329363E+04    0.28805E-03   -0.18200E-03 29628   0.815E-02    0.133E-01
DAV:  10    -0.125649329353E+04    0.10159E-06   -0.13770E-03 31332   0.593E-02    0.703E-02
DAV:  11    -0.125649323776E+04    0.55776E-04   -0.15442E-04 14160   0.286E-02
   2 F= -.12564932E+04 E0= -.12564932E+04  d E =-.937543E+00  mag=    39.9605
       N       E                     dE             d eps       ncg     rms          rms(c)
DAV:   1    -0.125756684864E+04   -0.10736E+01   -0.50310E+01 21948   0.108E+01    0.758E+00
DAV:   2    -0.125693990292E+04    0.62695E+00   -0.60436E+00 31044   0.449E+00    0.685E+00
DAV:   3    -0.125676844647E+04    0.17146E+00   -0.13573E+00 30696   0.209E+00    0.314E+00
DAV:   4    -0.125675285325E+04    0.15593E-01   -0.18780E-01 30960   0.636E-01    0.200E+00
DAV:   5    -0.125673971625E+04    0.13137E-01   -0.60196E-02 31392   0.502E-01    0.101E+00
DAV:   6    -0.125673775833E+04    0.19579E-02   -0.24331E-02 32100   0.289E-01    0.339E-01
DAV:   7    -0.125673774086E+04    0.17470E-04   -0.74192E-03 29412   0.159E-01    0.258E-01
DAV:   8    -0.125673777776E+04   -0.36901E-04   -0.12778E-03 30012   0.853E-02    0.132E-01
DAV:   9    -0.125673778584E+04   -0.80779E-05   -0.52344E-04 25920   0.427E-02
   3 F= -.12567378E+04 E0= -.12567378E+04  d E =-.244548E+00  mag=    39.9731
       N       E                     dE             d eps       ncg     rms          rms(c)
DAV:   1    -0.125688891518E+04   -0.15114E+00   -0.31029E+01 21504   0.789E+00    0.250E+00
DAV:   2    -0.125695002583E+04   -0.61111E-01   -0.16510E+00 30000   0.242E+00    0.314E+00
DAV:   3    -0.125692659154E+04    0.23434E-01   -0.16308E-01 29208   0.725E-01    0.200E+00
DAV:   4    -0.125691390868E+04    0.12683E-01   -0.79342E-02 27900   0.441E-01    0.135E+00
DAV:   5    -0.125690992716E+04    0.39815E-02   -0.29540E-02 31476   0.344E-01    0.643E-01
DAV:   6    -0.125690850005E+04    0.14271E-02   -0.18144E-02 31428   0.232E-01    0.315E-01
DAV:   7    -0.125690852236E+04   -0.22319E-04   -0.52714E-03 31344   0.108E-01    0.193E-01
DAV:   8    -0.125690846960E+04    0.52766E-04   -0.37518E-04 20340   0.554E-02
   4 F= -.12569085E+04 E0= -.12569085E+04  d E =-.170684E+00  mag=    39.9805
       N       E                     dE             d eps       ncg     rms          rms(c)
DAV:   1    -0.125702181856E+04   -0.11330E+00   -0.31963E+01 21504   0.805E+00    0.324E+00
DAV:   2    -0.125697616741E+04    0.45651E-01   -0.14597E+00 28512   0.196E+00    0.225E+00
DAV:   3    -0.125696079589E+04    0.15372E-01   -0.17819E-01 30096   0.895E-01    0.169E+00
DAV:   4    -0.125695472860E+04    0.60673E-02   -0.59129E-02 31092   0.358E-01    0.100E+00
DAV:   5    -0.125695193360E+04    0.27950E-02   -0.14368E-02 32292   0.262E-01    0.411E-01
DAV:   6    -0.125695198958E+04   -0.55986E-04   -0.76747E-03 31164   0.153E-01    0.249E-01
DAV:   7    -0.125695178609E+04    0.20349E-03   -0.19451E-03 31524   0.818E-02    0.940E-02
DAV:   8    -0.125695179798E+04   -0.11893E-04   -0.54662E-04 23076   0.372E-02
   5 F= -.12569518E+04 E0= -.12569518E+04  d E =-.433284E-01  mag=    39.9861
       N       E                     dE             d eps       ncg     rms          rms(c)
DAV:   1    -0.125708172222E+04   -0.12994E+00   -0.11888E+01 21696   0.494E+00    0.200E+00
DAV:   2    -0.125705541189E+04    0.26310E-01   -0.54335E-01 29220   0.127E+00    0.163E+00
DAV:   3    -0.125704879554E+04    0.66163E-02   -0.65199E-02 29568   0.515E-01    0.910E-01
DAV:   4    -0.125704445553E+04    0.43400E-02   -0.31284E-02 31716   0.294E-01    0.501E-01
DAV:   5    -0.125704317244E+04    0.12831E-02   -0.65605E-03 29028   0.163E-01    0.259E-01
DAV:   6    -0.125704306703E+04    0.10541E-03   -0.41305E-03 32280   0.115E-01    0.162E-01
DAV:   7    -0.125704302235E+04    0.44680E-04   -0.11377E-03 30672   0.651E-02    0.835E-02
DAV:   8    -0.125704301235E+04    0.99932E-05   -0.39929E-04 20808   0.313E-02
   6 F= -.12570430E+04 E0= -.12570430E+04  d E =-.912144E-01  mag=    39.9901
       N       E                     dE             d eps       ncg     rms          rms(c)
DAV:   1    -0.125700167499E+04    0.41347E-01   -0.65171E+01 21504   0.113E+01    0.232E+00
DAV:   2    -0.125715463026E+04   -0.15296E+00   -0.22552E+00 28908   0.236E+00    0.228E+00
DAV:   3    -0.125714211477E+04    0.12515E-01   -0.13247E-01 29160   0.688E-01    0.130E+00
DAV:   4    -0.125713499149E+04    0.71233E-02   -0.19716E-02 31548   0.311E-01    0.931E-01
DAV:   5    -0.125713303729E+04    0.19542E-02   -0.18689E-02 31188   0.249E-01    0.393E-01
DAV:   6    -0.125713277056E+04    0.26674E-03   -0.40186E-03 30684   0.154E-01    0.246E-01
DAV:   7    -0.125713281361E+04   -0.43058E-04   -0.18352E-03 30432   0.593E-02    0.109E-01
DAV:   8    -0.125713279463E+04    0.18985E-04   -0.16294E-04 16200   0.315E-02
   7 F= -.12571328E+04 E0= -.12571328E+04  d E =-.897823E-01  mag=    39.9928
       N       E                     dE             d eps       ncg     rms          rms(c)
DAV:   1    -0.125713130131E+04    0.15123E-02   -0.51276E+00 21672   0.325E+00    0.125E+00
DAV:   2    -0.125712692462E+04    0.43767E-02   -0.27886E-01 30816   0.950E-01    0.129E+00
DAV:   3    -0.125712197187E+04    0.49528E-02   -0.32705E-02 30288   0.333E-01    0.652E-01
DAV:   4    -0.125712069804E+04    0.12738E-02   -0.40984E-03 31212   0.128E-01    0.457E-01
DAV:   5    -0.125712037759E+04    0.32045E-03   -0.23342E-03 31416   0.923E-02    0.221E-01
DAV:   6    -0.125712021723E+04    0.16036E-03   -0.10177E-03 29796   0.536E-02    0.765E-02
DAV:   7    -0.125712021517E+04    0.20556E-05   -0.17759E-04 12984   0.286E-02
   8 F= -.12571202E+04 E0= -.12571202E+04  d E =0.125795E-01  mag=    39.9945
       N       E                     dE             d eps       ncg     rms          rms(c)
DAV:   1    -0.125712892867E+04   -0.87114E-02   -0.80444E+00 21516   0.396E+00    0.627E-01
DAV:   2    -0.125715076824E+04   -0.21840E-01   -0.23229E-01 27060   0.725E-01    0.551E-01
DAV:   3    -0.125715059026E+04    0.17798E-03   -0.91143E-03 29628   0.172E-01    0.371E-01
DAV:   4    -0.125715017528E+04    0.41498E-03   -0.10725E-03 29136   0.589E-02    0.285E-01
DAV:   5    -0.125714955792E+04    0.61736E-03   -0.11818E-03 30084   0.105E-01    0.988E-02
DAV:   6    -0.125714971341E+04   -0.15550E-03   -0.22240E-03 28500   0.663E-02    0.768E-02
DAV:   7    -0.125714965933E+04    0.54081E-04   -0.16004E-04 13188   0.291E-02
   9 F= -.12571497E+04 E0= -.12571497E+04  d E =-.294442E-01  mag=    39.9958
       N       E                     dE             d eps       ncg     rms          rms(c)
DAV:   1    -0.125715200936E+04   -0.22959E-02   -0.10191E+01 21504   0.444E+00    0.765E-01
DAV:   2    -0.125717966466E+04   -0.27655E-01   -0.29324E-01 25524   0.787E-01    0.537E-01
DAV:   3    -0.125718014121E+04   -0.47655E-03   -0.14056E-02 28596   0.176E-01    0.351E-01
DAV:   4    -0.125717933779E+04    0.80343E-03   -0.25999E-03 31380   0.972E-02    0.225E-01
DAV:   5    -0.125717904298E+04    0.29481E-03   -0.23859E-03 31920   0.104E-01    0.104E-01
DAV:   6    -0.125717908441E+04   -0.41437E-04   -0.10623E-03 27744   0.591E-02    0.811E-02
DAV:   7    -0.125717902433E+04    0.60088E-04   -0.15521E-04 12432   0.271E-02
  10 F= -.12571790E+04 E0= -.12571790E+04  d E =-.293650E-01  mag=    39.9967
       N       E                     dE             d eps       ncg     rms          rms(c)
DAV:   1    -0.125714479454E+04    0.34290E-01   -0.27796E+01 21552   0.738E+00    0.116E+00
DAV:   2    -0.125721942780E+04   -0.74633E-01   -0.79217E-01 24684   0.130E+00    0.843E-01
DAV:   3    -0.125721956500E+04   -0.13721E-03   -0.29437E-02 29940   0.294E-01    0.593E-01
DAV:   4    -0.125721798865E+04    0.15764E-02   -0.53212E-03 31380   0.129E-01    0.374E-01
DAV:   5    -0.125721636786E+04    0.16208E-02   -0.25083E-03 31812   0.160E-01    0.161E-01
DAV:   6    -0.125721667652E+04   -0.30865E-03   -0.64041E-03 28956   0.121E-01    0.127E-01
DAV:   7    -0.125721658472E+04    0.91798E-04   -0.91486E-04 25044   0.546E-02
  11 F= -.12572166E+04 E0= -.12572166E+04  d E =-.375604E-01  mag=    39.9975
       N       E                     dE             d eps       ncg     rms          rms(c)
DAV:   1    -0.125721922191E+04   -0.25454E-02   -0.36541E-01 21864   0.878E-01    0.461E-01
DAV:   2    -0.125721686866E+04    0.23533E-02   -0.22218E-02 31308   0.283E-01    0.400E-01
DAV:   3    -0.125721646683E+04    0.40183E-03   -0.37802E-03 31176   0.117E-01    0.205E-01
DAV:   4    -0.125721625094E+04    0.21589E-03   -0.12139E-03 27516   0.587E-02    0.115E-01
DAV:   5    -0.125721620377E+04    0.47175E-04   -0.33965E-04 21624   0.406E-02
  12 F= -.12572162E+04 E0= -.12572162E+04  d E =0.380950E-03  mag=    39.9979
       N       E                     dE             d eps       ncg     rms          rms(c)
DAV:   1    -0.125722007068E+04   -0.38197E-02   -0.41829E+00 21588   0.287E+00    0.538E-01
DAV:   2    -0.125722984200E+04   -0.97713E-02   -0.12209E-01 25128   0.508E-01    0.321E-01
DAV:   3    -0.125722980630E+04    0.35700E-04   -0.59155E-03 29352   0.138E-01    0.180E-01
DAV:   4    -0.125722948068E+04    0.32562E-03   -0.13791E-03 29664   0.689E-02    0.999E-02
DAV:   5    -0.125722935758E+04    0.12310E-03   -0.70414E-04 25812   0.541E-02    0.530E-02
DAV:   6    -0.125722935525E+04    0.23312E-05   -0.31319E-04 19128   0.335E-02
  13 F= -.12572294E+04 E0= -.12572294E+04  d E =-.131515E-01  mag=    39.9983
       N       E                     dE             d eps       ncg     rms          rms(c)
DAV:   1    -0.125723148642E+04   -0.21288E-02   -0.23045E+00 21540   0.213E+00    0.370E-01
DAV:   2    -0.125723801792E+04   -0.65315E-02   -0.69295E-02 26364   0.402E-01    0.307E-01
DAV:   3    -0.125723796188E+04    0.56044E-04   -0.31209E-03 29232   0.101E-01    0.179E-01
DAV:   4    -0.125723776994E+04    0.19194E-03   -0.44940E-04 21612   0.493E-02    0.130E-01
DAV:   5    -0.125723769840E+04    0.71540E-04   -0.77217E-04 27408   0.659E-02
  14 F= -.12572377E+04 E0= -.12572377E+04  d E =-.834315E-02  mag=    39.9986
       N       E                     dE             d eps       ncg     rms          rms(c)
DAV:   1    -0.125724001107E+04   -0.22411E-02   -0.93336E-02 22140   0.446E-01    0.236E-01
DAV:   2    -0.125723961452E+04    0.39655E-03   -0.69968E-03 31716   0.149E-01    0.199E-01
DAV:   3    -0.125723949904E+04    0.11548E-03   -0.15052E-03 30012   0.664E-02    0.777E-02
DAV:   4    -0.125723945487E+04    0.44169E-04   -0.19134E-04 14664   0.309E-02
  15 F= -.12572395E+04 E0= -.12572395E+04  d E =-.175647E-02  mag=    39.9988
       N       E                     dE             d eps       ncg     rms          rms(c)
DAV:   1    -0.125724220512E+04   -0.27061E-02   -0.11216E+00 21528   0.148E+00    0.237E-01
DAV:   2    -0.125724519457E+04   -0.29894E-02   -0.32004E-02 25164   0.263E-01    0.158E-01
DAV:   3    -0.125724519673E+04   -0.21608E-05   -0.13233E-03 28344   0.573E-02    0.106E-01
DAV:   4    -0.125724510316E+04    0.93569E-04   -0.13977E-04 13632   0.317E-02
  16 F= -.12572451E+04 E0= -.12572451E+04  d E =-.564829E-02  mag=    39.9990
       N       E                     dE             d eps       ncg     rms          rms(c)
DAV:   1    -0.125724637275E+04   -0.11760E-02   -0.25411E+00 21504   0.223E+00    0.376E-01
DAV:   2    -0.125725285801E+04   -0.64853E-02   -0.69274E-02 23916   0.384E-01    0.203E-01
DAV:   3    -0.125725299090E+04   -0.13289E-03   -0.33458E-03 30288   0.869E-02    0.153E-01
DAV:   4    -0.125725283823E+04    0.15267E-03   -0.36313E-04 20256   0.369E-02    0.102E-01
DAV:   5    -0.125725269534E+04    0.14289E-03   -0.57312E-04 24156   0.633E-02    0.422E-02
DAV:   6    -0.125725273965E+04   -0.44311E-04   -0.60561E-04 23724   0.348E-02
  17 F= -.12572527E+04 E0= -.12572527E+04  d E =-.763649E-02  mag=    39.9992
       N       E                     dE             d eps       ncg     rms          rms(c)
DAV:   1    -0.125724658913E+04    0.61062E-02   -0.67565E+00 21504   0.363E+00    0.654E-01
DAV:   2    -0.125726446838E+04   -0.17879E-01   -0.19232E-01 24528   0.636E-01    0.370E-01
DAV:   3    -0.125726487053E+04   -0.40216E-03   -0.10182E-02 29268   0.155E-01    0.228E-01
DAV:   4    -0.125726427279E+04    0.59774E-03   -0.22984E-03 30444   0.932E-02    0.135E-01
DAV:   5    -0.125726413644E+04    0.13635E-03   -0.14905E-03 31248   0.758E-02    0.905E-02
DAV:   6    -0.125726412797E+04    0.84644E-05   -0.38644E-04 20016   0.356E-02
  18 F= -.12572641E+04 E0= -.12572641E+04  d E =-.113883E-01  mag=    39.9994
       N       E                     dE             d eps       ncg     rms          rms(c)
DAV:   1    -0.125720248923E+04    0.61647E-01   -0.29246E+01 21504   0.756E+00    0.124E+00
DAV:   2    -0.125728290861E+04   -0.80419E-01   -0.83241E-01 24180   0.132E+00    0.697E-01
DAV:   3    -0.125728399263E+04   -0.10840E-02   -0.35009E-02 29508   0.281E-01    0.455E-01
DAV:   4    -0.125728188722E+04    0.21054E-02   -0.64784E-03 31056   0.158E-01    0.285E-01
DAV:   5    -0.125728079677E+04    0.10904E-02   -0.50166E-03 32052   0.177E-01    0.124E-01
DAV:   6    -0.125728106258E+04   -0.26581E-03   -0.36082E-03 29076   0.951E-02    0.144E-01
DAV:   7    -0.125728093920E+04    0.12339E-03   -0.30871E-04 17208   0.355E-02    0.104E-01
DAV:   8    -0.125728091504E+04    0.24159E-04   -0.28143E-04 13932   0.268E-02
  19 F= -.12572809E+04 E0= -.12572809E+04  d E =-.167871E-01  mag=    39.9995
       N       E                     dE             d eps       ncg     rms          rms(c)
DAV:   1    -0.125727621103E+04    0.47282E-02   -0.97592E-01 21528   0.138E+00    0.298E-01
DAV:   2    -0.125727877701E+04   -0.25660E-02   -0.29257E-02 27408   0.269E-01    0.243E-01
DAV:   3    -0.125727884170E+04   -0.64683E-04   -0.22250E-03 29532   0.758E-02    0.132E-01
DAV:   4    -0.125727871040E+04    0.13129E-03   -0.43398E-04 22068   0.434E-02    0.101E-01
DAV:   5    -0.125727867867E+04    0.31734E-04   -0.40070E-04 19836   0.368E-02
  20 F= -.12572787E+04 E0= -.12572787E+04  d E =0.223637E-02  mag=    39.9996
       N       E                     dE             d eps       ncg     rms          rms(c)
DAV:   1    -0.125727892584E+04   -0.21543E-03   -0.10002E+00 21528   0.140E+00    0.224E-01
DAV:   2    -0.125728152261E+04   -0.25968E-02   -0.27841E-02 25740   0.242E-01    0.157E-01
DAV:   3    -0.125728151286E+04    0.97487E-05   -0.11842E-03 28008   0.542E-02    0.905E-02
DAV:   4    -0.125728140604E+04    0.10682E-03   -0.25947E-04 17976   0.389E-02    0.656E-02
DAV:   5    -0.125728140308E+04    0.29627E-05   -0.34016E-04 16920   0.328E-02
  21 F= -.12572814E+04 E0= -.12572814E+04  d E =-.272441E-02  mag=    39.9997
       N       E                     dE             d eps       ncg     rms          rms(c)
DAV:   1    -0.125728186369E+04   -0.45764E-03   -0.20132E-01 21648   0.625E-01    0.121E-01
DAV:   2    -0.125728244262E+04   -0.57893E-03   -0.65720E-03 26964   0.129E-01    0.110E-01
DAV:   3    -0.125728245571E+04   -0.13095E-04   -0.53864E-04 22296   0.385E-02
  22 F= -.12572825E+04 E0= -.12572825E+04  d E =-.105263E-02  mag=    39.9997
       N       E                     dE             d eps       ncg     rms          rms(c)
DAV:   1    -0.125728255600E+04   -0.11339E-03   -0.10655E+00 21528   0.145E+00    0.279E-01
DAV:   2    -0.125728500541E+04   -0.24494E-02   -0.30402E-02 24900   0.256E-01    0.162E-01
DAV:   3    -0.125728496843E+04    0.36976E-04   -0.17208E-03 28560   0.754E-02    0.873E-02
DAV:   4    -0.125728486419E+04    0.10424E-03   -0.28738E-04 18636   0.356E-02    0.567E-02
DAV:   5    -0.125728483058E+04    0.33613E-04   -0.22439E-04 13596   0.307E-02
  23 F= -.12572848E+04 E0= -.12572848E+04  d E =-.237486E-02  mag=    39.9998
       N       E                     dE             d eps       ncg     rms          rms(c)
DAV:   1    -0.125728294507E+04    0.19191E-02   -0.35210E-01 21528   0.837E-01    0.194E-01
DAV:   2    -0.125728367995E+04   -0.73488E-03   -0.11308E-02 26256   0.158E-01    0.133E-01
DAV:   3    -0.125728363814E+04    0.41813E-04   -0.62495E-04 23736   0.523E-02
  24 F= -.12572836E+04 E0= -.12572836E+04  d E =0.119244E-02  mag=    39.9998
       N       E                     dE             d eps       ncg     rms          rms(c)
DAV:   1    -0.125728385817E+04   -0.17822E-03   -0.46302E-01 21552   0.954E-01    0.160E-01
DAV:   2    -0.125728513943E+04   -0.12813E-02   -0.13679E-02 24576   0.168E-01    0.886E-02
DAV:   3    -0.125728515414E+04   -0.14711E-04   -0.53568E-04 23328   0.371E-02
  25 F= -.12572852E+04 E0= -.12572852E+04  d E =-.151600E-02  mag=    39.9998
       N       E                     dE             d eps       ncg     rms          rms(c)
DAV:   1    -0.125728585769E+04   -0.71826E-03   -0.43946E-01 21528   0.930E-01    0.182E-01
DAV:   2    -0.125728666177E+04   -0.80407E-03   -0.12605E-02 24888   0.165E-01    0.105E-01
DAV:   3    -0.125728659779E+04    0.63974E-04   -0.54606E-04 23232   0.475E-02
  26 F= -.12572866E+04 E0= -.12572866E+04  d E =-.144365E-02  mag=    39.9998
       N       E                     dE             d eps       ncg     rms          rms(c)
DAV:   1    -0.125728730550E+04   -0.64373E-03   -0.12752E-01 21600   0.501E-01    0.139E-01
DAV:   2    -0.125728737453E+04   -0.69027E-04   -0.42812E-03 29076   0.102E-01    0.110E-01
DAV:   3    -0.125728731303E+04    0.61500E-04   -0.35297E-04 20652   0.382E-02
  27 F= -.12572873E+04 E0= -.12572873E+04  d E =-.715234E-03  mag=    39.9998
       N       E                     dE             d eps       ncg     rms          rms(c)
DAV:   1    -0.125728765338E+04   -0.27885E-03   -0.43803E-02 21708   0.294E-01    0.637E-02
DAV:   2    -0.125728773857E+04   -0.85194E-04   -0.14046E-03 26856   0.617E-02    0.624E-02
DAV:   3    -0.125728772399E+04    0.14581E-04   -0.87863E-05 12600   0.206E-02
  28 F= -.12572877E+04 E0= -.12572877E+04  d E =-.410963E-03  mag=    39.9999
       N       E                     dE             d eps       ncg     rms          rms(c)
DAV:   1    -0.125728809898E+04   -0.36041E-03   -0.26033E-01 21528   0.716E-01    0.155E-01
DAV:   2    -0.125728869650E+04   -0.59752E-03   -0.73697E-03 26856   0.131E-01    0.104E-01
DAV:   3    -0.125728869431E+04    0.21875E-05   -0.35865E-04 19104   0.358E-02
  29 F= -.12572887E+04 E0= -.12572887E+04  d E =-.970320E-03  mag=    39.9999
       N       E                     dE             d eps       ncg     rms          rms(c)
DAV:   1    -0.125728904921E+04   -0.35271E-03   -0.41664E-02 21696   0.286E-01    0.833E-02
DAV:   2    -0.125728910185E+04   -0.52644E-04   -0.11978E-03 23232   0.534E-02    0.438E-02
DAV:   3    -0.125728908901E+04    0.12841E-04   -0.58440E-05 12312   0.184E-02
  30 F= -.12572891E+04 E0= -.12572891E+04  d E =-.394704E-03  mag=    39.9999
       N       E                     dE             d eps       ncg     rms          rms(c)
DAV:   1    -0.125728927878E+04   -0.17692E-03   -0.29991E-02 21720   0.242E-01    0.475E-02
DAV:   2    -0.125728933697E+04   -0.58192E-04   -0.94344E-04 24396   0.511E-02
  31 F= -.12572893E+04 E0= -.12572893E+04  d E =-.247954E-03  mag=    39.9999
       N       E                     dE             d eps       ncg     rms          rms(c)
DAV:   1    -0.125728992379E+04   -0.64501E-03   -0.67365E-02 21720   0.368E-01    0.124E-01
DAV:   2    -0.125728989833E+04    0.25455E-04   -0.27795E-03 29868   0.824E-02    0.825E-02
DAV:   3    -0.125728985075E+04    0.47584E-04   -0.27537E-04 18408   0.381E-02
  32 F= -.12572899E+04 E0= -.12572899E+04  d E =-.513782E-03  mag=    39.9999
       N       E                     dE             d eps       ncg     rms          rms(c)
DAV:   1    -0.125729027136E+04   -0.37303E-03   -0.10849E-01 21576   0.458E-01    0.904E-02
DAV:   2    -0.125729049148E+04   -0.22011E-03   -0.29046E-03 26472   0.806E-02    0.571E-02
DAV:   3    -0.125729047858E+04    0.12900E-04   -0.14211E-04 12768   0.205E-02
  33 F= -.12572905E+04 E0= -.12572905E+04  d E =-.627827E-03  mag=    39.9999
       N       E                     dE             d eps       ncg     rms          rms(c)
DAV:   1    -0.125729071762E+04   -0.22614E-03   -0.53622E-02 21648   0.322E-01    0.685E-02
DAV:   2    -0.125729085378E+04   -0.13616E-03   -0.18052E-03 26952   0.694E-02    0.768E-02
DAV:   3    -0.125729083648E+04    0.17300E-04   -0.89816E-05 12396   0.215E-02
  34 F= -.12572908E+04 E0= -.12572908E+04  d E =-.357902E-03  mag=    39.9999
       N       E                     dE             d eps       ncg     rms          rms(c)
DAV:   1    -0.125729120804E+04   -0.35426E-03   -0.56177E-02 21648   0.333E-01    0.837E-02
DAV:   2    -0.125729129244E+04   -0.84402E-04   -0.17848E-03 27828   0.640E-02    0.567E-02
DAV:   3    -0.125729127335E+04    0.19089E-04   -0.11615E-04 13836   0.253E-02
  35 F= -.12572913E+04 E0= -.12572913E+04  d E =-.436871E-03  mag=    39.9999
       N       E                     dE             d eps       ncg     rms          rms(c)
DAV:   1    -0.125729164574E+04   -0.35331E-03   -0.12672E-01 21576   0.497E-01    0.887E-02
DAV:   2    -0.125729191386E+04   -0.26811E-03   -0.35434E-03 26508   0.887E-02    0.718E-02
DAV:   3    -0.125729190103E+04    0.12825E-04   -0.12713E-04 12324   0.269E-02
  36 F= -.12572919E+04 E0= -.12572919E+04  d E =-.627684E-03  mag=    39.9999
       N       E                     dE             d eps       ncg     rms          rms(c)
DAV:   1    -0.125729212995E+04   -0.21609E-03   -0.54483E-02 21600   0.325E-01    0.550E-02
DAV:   2    -0.125729226312E+04   -0.13317E-03   -0.15050E-03 24264   0.583E-02    0.444E-02
DAV:   3    -0.125729225445E+04    0.86759E-05   -0.52302E-05 12120   0.155E-02
  37 F= -.12572923E+04 E0= -.12572923E+04  d E =-.353414E-03  mag=    39.9999
       N       E                     dE             d eps       ncg     rms          rms(c)
DAV:   1    -0.125729257087E+04   -0.30775E-03   -0.52957E-02 21624   0.321E-01    0.717E-02
DAV:   2    -0.125729266441E+04   -0.93543E-04   -0.15457E-03 26436   0.581E-02    0.520E-02
DAV:   3    -0.125729265037E+04    0.14041E-04   -0.90509E-05 12180   0.204E-02
  38 F= -.12572927E+04 E0= -.12572927E+04  d E =-.395925E-03  mag=    39.9999
       N       E                     dE             d eps       ncg     rms          rms(c)
DAV:   1    -0.125729288517E+04   -0.22075E-03   -0.49270E-02 21600   0.309E-01    0.469E-02
DAV:   2    -0.125729300353E+04   -0.11837E-03   -0.13009E-03 23220   0.514E-02    0.324E-02
DAV:   3    -0.125729299934E+04    0.41879E-05   -0.40827E-05 11424   0.125E-02
  39 F= -.12572930E+04 E0= -.12572930E+04  d E =-.348973E-03  mag=    39.9999
       N       E                     dE             d eps       ncg     rms          rms(c)
DAV:   1    -0.125729325776E+04   -0.25423E-03   -0.23199E-01 21528   0.672E-01    0.117E-01
DAV:   2    -0.125729378974E+04   -0.53198E-03   -0.64309E-03 25524   0.116E-01    0.784E-02
DAV:   3    -0.125729377792E+04    0.11819E-04   -0.32473E-04 17316   0.333E-02
  40 F= -.12572938E+04 E0= -.12572938E+04  d E =-.778572E-03  mag=    39.9999
       N       E                     dE             d eps       ncg     rms          rms(c)
DAV:   1    -0.125729365387E+04    0.13587E-03   -0.65027E-03 21720   0.117E-01    0.443E-02
DAV:   2    -0.125729365600E+04   -0.21312E-05   -0.33256E-04 19968   0.401E-02
  41 F= -.12572937E+04 E0= -.12572937E+04  d E =0.121918E-03  mag=    40.0000
       N       E                     dE             d eps       ncg     rms          rms(c)
DAV:   1    -0.125729388816E+04   -0.23430E-03   -0.11566E-01 21576   0.474E-01    0.744E-02
DAV:   2    -0.125729418104E+04   -0.29288E-03   -0.31975E-03 23640   0.814E-02    0.441E-02
DAV:   3    -0.125729417601E+04    0.50250E-05   -0.90514E-05 11976   0.184E-02
  42 F= -.12572942E+04 E0= -.12572942E+04  d E =-.520016E-03  mag=    40.0000
       N       E                     dE             d eps       ncg     rms          rms(c)
DAV:   1    -0.125729452059E+04   -0.33955E-03   -0.64491E-02 21576   0.354E-01    0.938E-02
DAV:   2    -0.125729459938E+04   -0.78786E-04   -0.21610E-03 29796   0.753E-02    0.780E-02
DAV:   3    -0.125729457277E+04    0.26600E-04   -0.17508E-04 14808   0.266E-02
  43 F= -.12572946E+04 E0= -.12572946E+04  d E =-.396760E-03  mag=    40.0000
       N       E                     dE             d eps       ncg     rms          rms(c)
DAV:   1    -0.125729469781E+04   -0.98438E-04   -0.18429E-02 21648   0.189E-01    0.367E-02
DAV:   2    -0.125729474334E+04   -0.45524E-04   -0.61279E-04 23388   0.408E-02
  44 F= -.12572947E+04 E0= -.12572947E+04  d E =-.170563E-03  mag=    40.0000
       N       E                     dE             d eps       ncg     rms          rms(c)
DAV:   1    -0.125729498442E+04   -0.28661E-03   -0.41394E-02 21576   0.283E-01    0.646E-02
DAV:   2    -0.125729506790E+04   -0.83478E-04   -0.13402E-03 26952   0.567E-02    0.474E-02
DAV:   3    -0.125729505561E+04    0.12292E-04   -0.88409E-05 12096   0.209E-02
  45 F= -.12572951E+04 E0= -.12572951E+04  d E =-.312269E-03  mag=    40.0000
       N       E                     dE             d eps       ncg     rms          rms(c)
DAV:   1    -0.125729516984E+04   -0.10194E-03   -0.74297E-03 21648   0.120E-01    0.258E-02
DAV:   2    -0.125729517944E+04   -0.96024E-05   -0.16047E-04 12384   0.204E-02
  46 F= -.12572952E+04 E0= -.12572952E+04  d E =-.123833E-03  mag=    40.0000
       N       E                     dE             d eps       ncg     rms          rms(c)
DAV:   1    -0.125729546675E+04   -0.29691E-03   -0.87204E-02 21528   0.413E-01    0.107E-01
DAV:   2    -0.125729561071E+04   -0.14396E-03   -0.28203E-03 27372   0.800E-02    0.744E-02
DAV:   3    -0.125729559797E+04    0.12737E-04   -0.19623E-04 15804   0.302E-02
  47 F= -.12572956E+04 E0= -.12572956E+04  d E =-.418534E-03  mag=    40.0000
       N       E                     dE             d eps       ncg     rms          rms(c)
DAV:   1    -0.125729541735E+04    0.19337E-03   -0.15355E-02 21624   0.176E-01    0.713E-02
DAV:   2    -0.125729541731E+04    0.40265E-07   -0.78476E-04 25764   0.497E-02
  48 F= -.12572954E+04 E0= -.12572954E+04  d E =0.180668E-03  mag=    40.0000
       N       E                     dE             d eps       ncg     rms          rms(c)
DAV:   1    -0.125729543032E+04   -0.12970E-04   -0.43544E-04 19680   0.334E-02    0.191E-02
DAV:   2    -0.125729542984E+04    0.47377E-06   -0.28141E-05 11616   0.123E-02
  49 F= -.12572954E+04 E0= -.12572954E+04  d E =-.125369E-04  mag=    40.0000
       N       E                     dE             d eps       ncg     rms          rms(c)
DAV:   1    -0.125729550876E+04   -0.78445E-04   -0.12386E-02 21624   0.147E-01    0.956E-02
DAV:   2    -0.125729553810E+04   -0.29341E-04   -0.52944E-04 22308   0.450E-02
  50 F= -.12572955E+04 E0= -.12572955E+04  d E =-.108260E-03  mag=    40.0000
       N       E                     dE             d eps       ncg     rms          rms(c)
DAV:   1    -0.125729562420E+04   -0.11543E-03   -0.20489E-02 21696   0.197E-01    0.685E-02
DAV:   2    -0.125729571754E+04   -0.93347E-04   -0.59642E-04 21636   0.380E-02
  51 F= -.12572957E+04 E0= -.12572957E+04  d E =-.179440E-03  mag=    40.0000
