       N       E                     dE             d eps       ncg     rms          rms(c)
DAV:   1     0.110809823841E+05    0.11081E+05   -0.39375E+05 43044   0.125E+03
DAV:   2     0.103034812816E+04   -0.10051E+05   -0.92508E+04 44400   0.350E+02
DAV:   3    -0.141760949743E+04   -0.24480E+04   -0.23669E+04 48876   0.180E+02
DAV:   4    -0.164553131328E+04   -0.22792E+03   -0.22425E+03 65076   0.612E+01
DAV:   5    -0.165440605201E+04   -0.88747E+01   -0.87449E+01 67716   0.139E+01
DAV:   6    -0.165482312944E+04   -0.41708E+00   -0.41308E+00 68112   0.257E+00
DAV:   7    -0.165484910274E+04   -0.25973E-01   -0.25851E-01 68352   0.650E-01
DAV:   8    -0.165485102283E+04   -0.19201E-02   -0.19155E-02 63804   0.151E-01
DAV:   9    -0.165485117788E+04   -0.15506E-03   -0.15483E-03 44664   0.440E-02
DAV:  10    -0.165485119178E+04   -0.13896E-04   -0.13863E-04 36420   0.164E-02
DAV:  11    -0.165485119437E+04   -0.25906E-05   -0.25769E-05 33684   0.102E-02
DAV:  12    -0.165485119570E+04   -0.13308E-05   -0.13224E-05 32664   0.730E-03    0.162E+02
DAV:  13    -0.129062673614E+04    0.36422E+03   -0.25661E+03 64272   0.818E+01    0.134E+02
DAV:  14    -0.176608380552E+04   -0.47546E+03   -0.69855E+03 71556   0.168E+02    0.281E+02
DAV:  15    -0.160681242119E+04    0.15927E+03   -0.24610E+03 67092   0.792E+01    0.172E+02
DAV:  16    -0.135127193054E+04    0.25554E+03   -0.41838E+02 71844   0.795E+01    0.852E+01
DAV:  17    -0.129842612730E+04    0.52846E+02   -0.27964E+02 69840   0.471E+01    0.841E+01
DAV:  18    -0.127518637276E+04    0.23240E+02   -0.83896E+01 64536   0.206E+01    0.576E+01
DAV:  19    -0.125852704607E+04    0.16659E+02   -0.42635E+01 63840   0.233E+01    0.401E+01
DAV:  20    -0.125511686253E+04    0.34102E+01   -0.88468E+01 62520   0.134E+01    0.377E+01
DAV:  21    -0.124770265726E+04    0.74142E+01   -0.41270E+01 64488   0.993E+00    0.389E+01
DAV:  22    -0.124588552792E+04    0.18171E+01   -0.12928E+01 68184   0.852E+00    0.380E+01
DAV:  23    -0.124787410049E+04   -0.19886E+01   -0.24696E+01 67740   0.109E+01    0.344E+01
DAV:  24    -0.124523447292E+04    0.26396E+01   -0.19226E+01 67368   0.986E+00    0.318E+01
DAV:  25    -0.124446435801E+04    0.77011E+00   -0.74077E+00 63096   0.354E+00    0.307E+01
DAV:  26    -0.124493844911E+04   -0.47409E+00   -0.24666E+00 64212   0.160E+00    0.320E+01
DAV:  27    -0.124467363997E+04    0.26481E+00   -0.13523E+00 65808   0.893E-01    0.318E+01
DAV:  28    -0.124466297294E+04    0.10667E-01   -0.59040E-02 51972   0.348E-01    0.317E+01
DAV:  29    -0.124465699679E+04    0.59762E-02   -0.42963E-03 67908   0.815E-02    0.317E+01
DAV:  30    -0.124467583639E+04   -0.18840E-01   -0.13475E-03 45984   0.699E-02    0.317E+01
DAV:  31    -0.124488910871E+04   -0.21327E+00   -0.20892E-01 66564   0.260E-01    0.322E+01
DAV:  32    -0.124484165063E+04    0.47458E-01   -0.49192E-02 53976   0.157E-01    0.321E+01
DAV:  33    -0.124479011295E+04    0.51538E-01   -0.27731E-01 68604   0.494E-01    0.320E+01
DAV:  34    -0.124489941426E+04   -0.10930E+00   -0.43172E+00 71940   0.158E+00    0.331E+01
DAV:  35    -0.124477750950E+04    0.12190E+00   -0.25346E-01 56088   0.473E-01    0.327E+01
DAV:  36    -0.124546616859E+04   -0.68866E+00   -0.79982E-01 60792   0.488E-01    0.342E+01
DAV:  37    -0.124541462477E+04    0.51544E-01   -0.30822E-02 53100   0.292E-01    0.344E+01
DAV:  38    -0.124555352387E+04   -0.13890E+00   -0.23888E-01 62376   0.521E-01    0.352E+01
DAV:  39    -0.124549528297E+04    0.58241E-01   -0.34405E-02 54792   0.278E-01    0.352E+01
DAV:  40    -0.124539308614E+04    0.10220E+00   -0.29602E-02 58908   0.207E-01    0.351E+01
DAV:  41    -0.124537382876E+04    0.19257E-01   -0.45543E-03 47688   0.105E-01    0.350E+01
DAV:  42    -0.124544755458E+04   -0.73726E-01   -0.10392E-02 61248   0.173E-01    0.354E+01
DAV:  43    -0.124545522640E+04   -0.76718E-02   -0.95167E-03 56028   0.138E-01    0.355E+01
DAV:  44    -0.124562293890E+04   -0.16771E+00   -0.10717E+00 66576   0.135E+00    0.376E+01
DAV:  45    -0.124562929256E+04   -0.63537E-02   -0.68661E-01 57816   0.930E-01    0.377E+01
DAV:  46    -0.124543822279E+04    0.19107E+00   -0.16479E-01 54720   0.561E-01    0.370E+01
DAV:  47    -0.124495254589E+04    0.48568E+00   -0.24324E-01 64512   0.711E-01    0.355E+01
DAV:  48    -0.124497431636E+04   -0.21770E-01   -0.48319E-02 47832   0.325E-01    0.355E+01
DAV:  49    -0.124504823669E+04   -0.73920E-01   -0.90207E-03 70080   0.199E-01    0.357E+01
DAV:  50    -0.124484034599E+04    0.20789E+00   -0.12896E-01 68004   0.874E-01    0.350E+01
DAV:  51    -0.124449344308E+04    0.34690E+00   -0.32685E+00 64884   0.246E+00    0.345E+01
DAV:  52    -0.124427168770E+04    0.22176E+00   -0.11402E+00 56928   0.131E+00    0.337E+01
DAV:  53    -0.124396240509E+04    0.30928E+00   -0.28179E-01 59616   0.800E-01    0.339E+01
DAV:  54    -0.124252480976E+04    0.14376E+01   -0.43230E+00 63960   0.225E+00    0.319E+01
DAV:  55    -0.124120232992E+04    0.13225E+01   -0.17168E+00 59616   0.172E+00    0.305E+01
DAV:  56    -0.123917772961E+04    0.20246E+01   -0.53022E+00 61788   0.379E+00    0.299E+01
DAV:  57    -0.123840930006E+04    0.76843E+00   -0.61333E+00 60768   0.317E+00    0.288E+01
DAV:  58    -0.121314846771E+04    0.25261E+02   -0.71418E+01 60660   0.398E+01    0.927E+01
DAV:  59    -0.123034522590E+04   -0.17197E+02   -0.44327E+01 61272   0.115E+01    0.834E+01
DAV:  60    -0.122118997984E+04    0.91552E+01   -0.23899E+01 61632   0.136E+01    0.715E+01
DAV:  61    -0.123767256051E+04   -0.16483E+02   -0.13511E+01 57744   0.670E+00    0.675E+01
DAV:  62    -0.123794551314E+04   -0.27295E+00   -0.10723E+01 62616   0.507E+00    0.654E+01
DAV:  63    -0.122868186242E+04    0.92637E+01   -0.10851E+01 56904   0.596E+00    0.649E+01
DAV:  64    -0.122827432530E+04    0.40754E+00   -0.12631E+01 60612   0.472E+00    0.679E+01
DAV:  65    -0.122770207024E+04    0.57226E+00   -0.23907E+00 57912   0.205E+00    0.690E+01
DAV:  66    -0.122210609995E+04    0.55960E+01   -0.18505E+00 54288   0.313E+00    0.726E+01
DAV:  67    -0.122516226813E+04   -0.30562E+01   -0.60083E-01 50340   0.165E+00    0.720E+01
DAV:  68    -0.120875465010E+04    0.16408E+02   -0.99823E+00 52272   0.729E+00    0.764E+01
DAV:  69    -0.121309147084E+04   -0.43368E+01   -0.56097E+00 50868   0.373E+00    0.767E+01
DAV:  70    -0.120381689128E+04    0.92746E+01   -0.40492E+00 53436   0.363E+00    0.799E+01
DAV:  71    -0.120985731559E+04   -0.60404E+01   -0.15170E+00 48756   0.229E+00    0.778E+01
DAV:  72    -0.121326601533E+04   -0.34087E+01   -0.14993E+00 57756   0.212E+00    0.755E+01
DAV:  73    -0.122527243306E+04   -0.12006E+02   -0.17948E+01 59340   0.838E+00    0.625E+01
DAV:  74    -0.122033942839E+04    0.49330E+01   -0.74783E+00 52092   0.402E+00    0.586E+01
DAV:  75    -0.121808361849E+04    0.22558E+01   -0.15741E+00 60456   0.226E+00    0.575E+01
DAV:  76    -0.121739813207E+04    0.68549E+00   -0.83547E-01 56088   0.152E+00    0.574E+01
DAV:  77    -0.121632095671E+04    0.10772E+01   -0.12594E+00 53808   0.151E+00    0.568E+01
DAV:  78    -0.122791666217E+04   -0.11596E+02   -0.21215E+01 54552   0.778E+00    0.609E+01
DAV:  79    -0.122526651969E+04    0.26501E+01   -0.40620E+00 54348   0.298E+00    0.625E+01
DAV:  80    -0.122298979421E+04    0.22767E+01   -0.14982E+00 57744   0.224E+00    0.633E+01
DAV:  81    -0.122154286730E+04    0.14469E+01   -0.89748E-01 53532   0.132E+00    0.640E+01
DAV:  82    -0.122186599740E+04   -0.32313E+00   -0.13301E-01 55440   0.505E-01    0.640E+01
DAV:  83    -0.123318707719E+04   -0.11321E+02   -0.18722E+01 55896   0.724E+00    0.616E+01
DAV:  84    -0.123880054526E+04   -0.56135E+01   -0.11379E+01 57264   0.491E+00    0.575E+01
DAV:  85    -0.124077665415E+04   -0.19761E+01   -0.36286E+00 52896   0.301E+00    0.542E+01
DAV:  86    -0.123831624650E+04    0.24604E+01   -0.31474E+00 52752   0.274E+00    0.505E+01
DAV:  87    -0.123571683460E+04    0.25994E+01   -0.17569E+00 53424   0.183E+00    0.494E+01
DAV:  88    -0.123904758399E+04   -0.33307E+01   -0.29221E+01 63516   0.924E+00    0.513E+01
DAV:  89    -0.123920426501E+04   -0.15668E+00   -0.59328E+00 56916   0.429E+00    0.480E+01
DAV:  90    -0.124147721791E+04   -0.22730E+01   -0.48072E+00 60576   0.342E+00    0.443E+01
DAV:  91    -0.124119202866E+04    0.28519E+00   -0.22444E+00 59208   0.239E+00    0.422E+01
DAV:  92    -0.124113283184E+04    0.59197E-01   -0.13416E+00 60912   0.164E+00    0.398E+01
DAV:  93    -0.123798168902E+04    0.31511E+01   -0.52692E+01 65136   0.140E+01    0.258E+01
DAV:  94    -0.123714437941E+04    0.83731E+00   -0.23795E+01 54288   0.670E+00    0.361E+01
DAV:  95    -0.123592356033E+04    0.12208E+01   -0.31919E+00 58200   0.285E+00    0.324E+01
DAV:  96    -0.123781118278E+04   -0.18876E+01   -0.13327E+00 62064   0.239E+00    0.315E+01
DAV:  97    -0.123848536254E+04   -0.67418E+00   -0.93278E+00 62556   0.346E+00    0.181E+01
DAV:  98    -0.124021712393E+04   -0.17318E+01   -0.16826E+01 64260   0.604E+00    0.227E+01
DAV:  99    -0.123932082442E+04    0.89630E+00   -0.59436E+00 61068   0.551E+00    0.206E+01
DAV: 100    -0.124113975585E+04   -0.18189E+01   -0.26417E+00 57528   0.248E+00
   1 F= -.12411398E+04 E0= -.12410778E+04  d E =-.124114E+04  mag=    34.9668
       N       E                     dE             d eps       ncg     rms          rms(c)
DAV:   1    -0.124302446454E+04   -0.37036E+01   -0.91799E+02 43008   0.420E+01    0.213E+01
DAV:   2    -0.124845717270E+04   -0.54327E+01   -0.55996E+01 63456   0.136E+01    0.280E+01
DAV:   3    -0.124844243163E+04    0.14741E-01   -0.67425E+00 56280   0.494E+00    0.211E+01
DAV:   4    -0.124763273085E+04    0.80970E+00   -0.62127E+00 74952   0.585E+00    0.160E+01
DAV:   5    -0.124907724762E+04   -0.14445E+01   -0.18719E+01 62196   0.611E+00    0.111E+01
DAV:   6    -0.124910725798E+04   -0.30010E-01   -0.18910E+01 66600   0.101E+01    0.102E+01
DAV:   7    -0.124837717733E+04    0.73008E+00   -0.20704E+01 65148   0.705E+00    0.225E+01
DAV:   8    -0.124811419675E+04    0.26298E+00   -0.23351E+00 61056   0.496E+00    0.128E+01
DAV:   9    -0.124797097956E+04    0.14322E+00   -0.25479E+00 59628   0.213E+00    0.557E+00
DAV:  10    -0.124789112208E+04    0.79857E-01   -0.25374E+00 62748   0.218E+00    0.532E+00
DAV:  11    -0.124778941562E+04    0.10171E+00   -0.11072E+00 64284   0.149E+00    0.703E+00
DAV:  12    -0.124782658088E+04   -0.37165E-01   -0.61566E-01 61452   0.120E+00    0.660E+00
DAV:  13    -0.124776677891E+04    0.59802E-01   -0.14289E+00 64740   0.140E+00    0.343E+00
DAV:  14    -0.124775487960E+04    0.11899E-01   -0.91407E-01 63336   0.940E-01    0.339E+00
DAV:  15    -0.124774939060E+04    0.54890E-02   -0.63146E-01 65616   0.817E-01    0.111E+00
DAV:  16    -0.124774742359E+04    0.19670E-02   -0.97111E-02 60792   0.390E-01    0.875E-01
DAV:  17    -0.124775324967E+04   -0.58261E-02   -0.27083E-02 56436   0.226E-01    0.934E-01
DAV:  18    -0.124776264372E+04   -0.93941E-02   -0.34555E-02 64164   0.229E-01    0.940E-01
DAV:  19    -0.124777429301E+04   -0.11649E-01   -0.49104E-02 60636   0.266E-01    0.861E-01
DAV:  20    -0.124778162015E+04   -0.73271E-02   -0.20682E-02 57012   0.196E-01    0.766E-01
DAV:  21    -0.124778892144E+04   -0.73013E-02   -0.18167E-02 57936   0.148E-01    0.788E-01
DAV:  22    -0.124779616112E+04   -0.72397E-02   -0.26354E-02 63900   0.230E-01    0.692E-01
DAV:  23    -0.124781161955E+04   -0.15458E-01   -0.52625E-02 58872   0.263E-01    0.206E+00
DAV:  24    -0.124781458125E+04   -0.29617E-02   -0.99012E-03 55140   0.142E-01    0.185E+00
DAV:  25    -0.124781591601E+04   -0.13348E-02   -0.23167E-03 51096   0.636E-02    0.180E+00
DAV:  26    -0.124781719719E+04   -0.12812E-02   -0.13356E-03 46764   0.484E-02    0.157E+00
DAV:  27    -0.124782719560E+04   -0.99984E-02   -0.16919E-02 62688   0.210E-01    0.145E+00
DAV:  28    -0.124783636876E+04   -0.91732E-02   -0.19536E-02 57384   0.186E-01    0.145E+00
DAV:  29    -0.124784031391E+04   -0.39452E-02   -0.85793E-03 53364   0.113E-01    0.123E+00
DAV:  30    -0.124784918256E+04   -0.88687E-02   -0.18058E-02 59964   0.190E-01    0.112E+00
DAV:  31    -0.124785531920E+04   -0.61366E-02   -0.18397E-02 55536   0.185E-01    0.990E-01
DAV:  32    -0.124786171214E+04   -0.63929E-02   -0.20989E-02 55248   0.212E-01    0.990E-01
DAV:  33    -0.124786463971E+04   -0.29276E-02   -0.14126E-02 52776   0.129E-01    0.786E-01
DAV:  34    -0.124786948862E+04   -0.48489E-02   -0.12360E-02 61512   0.167E-01    0.689E-01
DAV:  35    -0.124787262677E+04   -0.31381E-02   -0.15437E-02 55380   0.144E-01    0.324E-01
DAV:  36    -0.124787501300E+04   -0.23862E-02   -0.81774E-03 51588   0.949E-02    0.225E-01
DAV:  37    -0.124787433029E+04    0.68270E-03   -0.44010E-03 55188   0.931E-02    0.212E-01
DAV:  38    -0.124787397997E+04    0.35032E-03   -0.39975E-03 56604   0.773E-02    0.624E-01
DAV:  39    -0.124787114663E+04    0.28333E-02   -0.45027E-03 53508   0.985E-02    0.364E-01
DAV:  40    -0.124786923557E+04    0.19111E-02   -0.52197E-03 52764   0.103E-01    0.601E-01
DAV:  41    -0.124786544877E+04    0.37868E-02   -0.56888E-03 56028   0.121E-01    0.341E-01
DAV:  42    -0.124786288625E+04    0.25625E-02   -0.45001E-03 52752   0.112E-01    0.232E-01
DAV:  43    -0.124786482164E+04   -0.19354E-02   -0.30626E-03 56052   0.847E-02    0.195E-01
DAV:  44    -0.124786619511E+04   -0.13735E-02   -0.12102E-03 43128   0.550E-02    0.103E-01
DAV:  45    -0.124786858180E+04   -0.23867E-02   -0.24190E-03 50088   0.694E-02    0.199E-01
DAV:  46    -0.124787025140E+04   -0.16696E-02   -0.22589E-03 43932   0.557E-02    0.169E-01
DAV:  47    -0.124787072273E+04   -0.47133E-03   -0.63902E-04 37836   0.274E-02    0.123E-01
DAV:  48    -0.124787169002E+04   -0.96729E-03   -0.38225E-04 38880   0.305E-02    0.158E-01
DAV:  49    -0.124787491512E+04   -0.32251E-02   -0.68360E-03 56868   0.117E-01    0.182E-01
DAV:  50    -0.124787730167E+04   -0.23865E-02   -0.60895E-03 50088   0.888E-02    0.384E-01
DAV:  51    -0.124787779214E+04   -0.49046E-03   -0.13120E-03 38988   0.351E-02    0.307E-01
DAV:  52    -0.124787925981E+04   -0.14677E-02   -0.16016E-03 45708   0.619E-02    0.360E-01
DAV:  53    -0.124788006803E+04   -0.80822E-03   -0.16884E-03 45516   0.474E-02    0.290E-01
DAV:  54    -0.124788212166E+04   -0.20536E-02   -0.30627E-03 52668   0.823E-02    0.539E-01
DAV:  55    -0.124788067031E+04    0.14513E-02   -0.40100E-03 54912   0.119E-01    0.759E-01
DAV:  56    -0.124788108041E+04   -0.41010E-03   -0.29206E-04 35724   0.306E-02    0.783E-01
DAV:  57    -0.124788000469E+04    0.10757E-02   -0.64480E-04 37968   0.361E-02    0.601E-01
DAV:  58    -0.124788057151E+04   -0.56682E-03   -0.19039E-04 30456   0.203E-02    0.727E-01
DAV:  59    -0.124788091949E+04   -0.34798E-03   -0.10895E-04 28476   0.105E-02    0.819E-01
DAV:  60    -0.124788078074E+04    0.13875E-03   -0.22599E-05 24468   0.961E-03    0.822E-01
DAV:  61    -0.124788073869E+04    0.42048E-04   -0.14829E-05 23712   0.467E-03
   2 F= -.12478807E+04 E0= -.12477687E+04  d E =-.674098E+01  mag=    40.0021
       N       E                     dE             d eps       ncg     rms          rms(c)
DAV:   1    -0.124885177462E+04   -0.97099E+00   -0.20860E+02 43008   0.204E+01    0.570E+00
DAV:   2    -0.125026792801E+04   -0.14162E+01   -0.11686E+01 61488   0.611E+00    0.161E+01
DAV:   3    -0.125015207613E+04    0.11585E+00   -0.80335E-01 57564   0.207E+00    0.123E+01
DAV:   4    -0.124985160917E+04    0.30047E+00   -0.24558E-01 70320   0.166E+00    0.110E+01
DAV:   5    -0.124956235827E+04    0.28925E+00   -0.17215E+00 69996   0.378E+00    0.315E+00
DAV:   6    -0.124962900516E+04   -0.66647E-01   -0.86827E-01 59412   0.151E+00    0.422E+00
DAV:   7    -0.124965124126E+04   -0.22236E-01   -0.29011E-01 63708   0.184E+00    0.150E+00
DAV:   8    -0.124968955253E+04   -0.38311E-01   -0.31214E-01 58548   0.763E-01    0.264E+00
DAV:   9    -0.124971244023E+04   -0.22888E-01   -0.40622E-01 62496   0.944E-01    0.243E+00
DAV:  10    -0.124971390495E+04   -0.14647E-02   -0.92827E-02 63252   0.654E-01    0.218E+00
DAV:  11    -0.124972938871E+04   -0.15484E-01   -0.39014E-02 65628   0.493E-01    0.160E+00
DAV:  12    -0.124974431782E+04   -0.14929E-01   -0.39956E-02 59688   0.453E-01    0.149E+00
DAV:  13    -0.124976317451E+04   -0.18857E-01   -0.25066E-02 61356   0.426E-01    0.883E-01
DAV:  14    -0.124977839675E+04   -0.15222E-01   -0.28163E-02 55776   0.244E-01    0.772E-01
DAV:  15    -0.124978583066E+04   -0.74339E-02   -0.58505E-03 53544   0.134E-01    0.538E-01
DAV:  16    -0.124979020432E+04   -0.43737E-02   -0.20260E-03 50136   0.822E-02    0.553E-01
DAV:  17    -0.124980212708E+04   -0.11923E-01   -0.40310E-03 60912   0.141E-01    0.319E-01
DAV:  18    -0.124980774399E+04   -0.56169E-02   -0.47480E-03 59928   0.169E-01    0.247E-01
DAV:  19    -0.124980963178E+04   -0.18878E-02   -0.41870E-03 54948   0.930E-02    0.136E-01
DAV:  20    -0.124980939198E+04    0.23981E-03   -0.53312E-04 46488   0.566E-02    0.172E-01
DAV:  21    -0.124980996135E+04   -0.56937E-03   -0.27098E-04 38436   0.546E-02    0.133E-01
DAV:  22    -0.124981023421E+04   -0.27286E-03   -0.58514E-04 43464   0.603E-02    0.222E-01
DAV:  23    -0.124981026126E+04   -0.27045E-04   -0.30705E-04 42384   0.532E-02
   3 F= -.12498103E+04 E0= -.12497907E+04  d E =-.192952E+01  mag=    40.0013
       N       E                     dE             d eps       ncg     rms          rms(c)
DAV:   1    -0.124920089410E+04    0.60934E+00   -0.95700E+00 43476   0.430E+00    0.117E+00
DAV:   2    -0.124924477722E+04   -0.43883E-01   -0.45449E-01 60816   0.125E+00    0.273E+00
DAV:   3    -0.124924647007E+04   -0.16928E-02   -0.52814E-02 55188   0.389E-01    0.209E+00
DAV:   4    -0.124924246931E+04    0.40008E-02   -0.12953E-02 68664   0.322E-01    0.182E+00
DAV:   5    -0.124924712190E+04   -0.46526E-02   -0.28708E-02 66912   0.387E-01    0.133E+00
DAV:   6    -0.124924846092E+04   -0.13390E-02   -0.14842E-02 66108   0.356E-01    0.913E-01
DAV:   7    -0.124925055141E+04   -0.20905E-02   -0.11398E-02 63924   0.196E-01    0.828E-01
DAV:   8    -0.124925156185E+04   -0.10104E-02   -0.47742E-03 65748   0.211E-01    0.634E-01
DAV:   9    -0.124925444757E+04   -0.28857E-02   -0.37307E-02 64560   0.356E-01    0.495E-01
DAV:  10    -0.124925170745E+04    0.27401E-02   -0.20833E-02 62532   0.308E-01    0.311E-01
DAV:  11    -0.124925201619E+04   -0.30875E-03   -0.39934E-03 58608   0.937E-02    0.217E-01
DAV:  12    -0.124925210157E+04   -0.85382E-04   -0.46649E-04 43512   0.470E-02
   4 F= -.12492521E+04 E0= -.12492205E+04  d E =0.558160E+00  mag=    40.0034
       N       E                     dE             d eps       ncg     rms          rms(c)
DAV:   1    -0.124722364804E+04    0.20284E+01   -0.17491E+02 43008   0.189E+01    0.760E+00
DAV:   2    -0.124759043838E+04   -0.36679E+00   -0.10119E+01 59796   0.564E+00    0.750E+00
DAV:   3    -0.124751084718E+04    0.79591E-01   -0.13983E+00 60468   0.240E+00    0.427E+00
DAV:   4    -0.124756712898E+04   -0.56282E-01   -0.69723E-01 71892   0.257E+00    0.436E+00
DAV:   5    -0.124759641057E+04   -0.29282E-01   -0.76117E-01 61488   0.208E+00    0.316E+00
DAV:   6    -0.124799306684E+04   -0.39666E+00   -0.43767E+00 67548   0.241E+00    0.665E+00
DAV:   7    -0.124763975865E+04    0.35331E+00   -0.29847E+00 64896   0.245E+00    0.214E+00
DAV:   8    -0.124768986122E+04   -0.50103E-01   -0.87277E-01 61824   0.146E+00    0.234E+00
DAV:   9    -0.124768302452E+04    0.68367E-02   -0.55212E-01 59124   0.975E-01    0.185E+00
DAV:  10    -0.124768937409E+04   -0.63496E-02   -0.73332E-02 56196   0.399E-01    0.217E+00
DAV:  11    -0.124769340934E+04   -0.40352E-02   -0.33380E-02 58932   0.296E-01    0.182E+00
DAV:  12    -0.124769549445E+04   -0.20851E-02   -0.47011E-02 67296   0.402E-01    0.911E-01
DAV:  13    -0.124770213751E+04   -0.66431E-02   -0.19567E-02 60720   0.317E-01    0.592E-01
DAV:  14    -0.124770615580E+04   -0.40183E-02   -0.14948E-02 57660   0.193E-01    0.731E-01
DAV:  15    -0.124770884445E+04   -0.26886E-02   -0.12747E-02 59628   0.178E-01    0.520E-01
DAV:  16    -0.124771150290E+04   -0.26585E-02   -0.84836E-03 55344   0.133E-01    0.375E-01
DAV:  17    -0.124771613051E+04   -0.46276E-02   -0.80935E-03 60156   0.156E-01    0.275E-01
DAV:  18    -0.124772072141E+04   -0.45909E-02   -0.70867E-03 57048   0.165E-01    0.177E-01
DAV:  19    -0.124772354911E+04   -0.28277E-02   -0.53594E-03 54636   0.102E-01    0.145E-01
DAV:  20    -0.124772639818E+04   -0.28491E-02   -0.21389E-03 52128   0.707E-02    0.137E-01
DAV:  21    -0.124772892095E+04   -0.25228E-02   -0.24002E-03 48432   0.709E-02    0.126E-01
DAV:  22    -0.124773261456E+04   -0.36936E-02   -0.42353E-03 53328   0.925E-02    0.127E-01
DAV:  23    -0.124773537767E+04   -0.27631E-02   -0.42349E-03 48612   0.835E-02    0.149E-01
DAV:  24    -0.124773740203E+04   -0.20244E-02   -0.22558E-03 45480   0.613E-02    0.196E-01
DAV:  25    -0.124773484730E+04    0.25547E-02   -0.33541E-03 54720   0.102E-01    0.237E-01
DAV:  26    -0.124773433742E+04    0.50988E-03   -0.66742E-04 38268   0.330E-02    0.259E-01
DAV:  27    -0.124773438197E+04   -0.44545E-04   -0.77950E-05 27192   0.131E-02
   5 F= -.12477344E+04 E0= -.12476396E+04  d E =0.151772E+01  mag=    40.0193
       N       E                     dE             d eps       ncg     rms          rms(c)
DAV:   1    -0.124846067997E+04   -0.72634E+00   -0.89938E+02 43200   0.424E+01    0.165E+01
DAV:   2    -0.125078784619E+04   -0.23272E+01   -0.38780E+01 55896   0.963E+00    0.991E+00
DAV:   3    -0.125131443037E+04   -0.52658E+00   -0.57557E+00 60744   0.411E+00    0.525E+00
DAV:   4    -0.125147103614E+04   -0.15661E+00   -0.11487E+00 61584   0.190E+00    0.394E+00
DAV:   5    -0.125156229610E+04   -0.91260E-01   -0.34981E-01 57240   0.107E+00    0.201E+00
DAV:   6    -0.125163148498E+04   -0.69189E-01   -0.14082E-01 58308   0.660E-01    0.113E+00
DAV:   7    -0.125166244746E+04   -0.30962E-01   -0.52429E-02 59088   0.454E-01    0.840E-01
DAV:   8    -0.125167158910E+04   -0.91416E-02   -0.12868E-02 58236   0.211E-01    0.600E-01
DAV:   9    -0.125168083356E+04   -0.92445E-02   -0.75411E-03 61428   0.153E-01    0.434E-01
DAV:  10    -0.125168577720E+04   -0.49436E-02   -0.45418E-03 60024   0.127E-01    0.305E-01
DAV:  11    -0.125168832738E+04   -0.25502E-02   -0.23118E-03 60000   0.780E-02    0.226E-01
DAV:  12    -0.125169020668E+04   -0.18793E-02   -0.17270E-03 61368   0.682E-02    0.153E-01
DAV:  13    -0.125169129761E+04   -0.10909E-02   -0.13584E-03 60408   0.642E-02    0.113E-01
DAV:  14    -0.125169148074E+04   -0.18313E-03   -0.41352E-04 42384   0.389E-02    0.411E-02
DAV:  15    -0.125169150181E+04   -0.21068E-04   -0.11466E-04 26064   0.197E-02
   6 F= -.12516915E+04 E0= -.12516915E+04  d E =-.395712E+01  mag=    40.0083
       N       E                     dE             d eps       ncg     rms          rms(c)
DAV:   1    -0.125257137555E+04   -0.87989E+00   -0.31862E+02 43008   0.254E+01    0.898E+00
DAV:   2    -0.125276778754E+04   -0.19641E+00   -0.14519E+01 63132   0.813E+00    0.890E+00
DAV:   3    -0.125267418942E+04    0.93598E-01   -0.19402E+00 58380   0.250E+00    0.461E+00
DAV:   4    -0.125259449417E+04    0.79695E-01   -0.38581E-01 65580   0.114E+00    0.324E+00
DAV:   5    -0.125257146566E+04    0.23029E-01   -0.17588E-01 61044   0.817E-01    0.160E+00
DAV:   6    -0.125256248710E+04    0.89786E-02   -0.75650E-02 62628   0.547E-01    0.490E-01
DAV:   7    -0.125256353259E+04   -0.10455E-02   -0.24661E-02 61272   0.360E-01    0.362E-01
DAV:   8    -0.125256371540E+04   -0.18282E-03   -0.40207E-03 59484   0.108E-01    0.180E-01
DAV:   9    -0.125256368842E+04    0.26985E-04   -0.13190E-03 60456   0.791E-02    0.128E-01
DAV:  10    -0.125256372028E+04   -0.31864E-04   -0.73160E-04 48372   0.467E-02
   7 F= -.12525637E+04 E0= -.12525637E+04  d E =-.872218E+00  mag=    40.0056
       N       E                     dE             d eps       ncg     rms          rms(c)
DAV:   1    -0.125329344809E+04   -0.72976E+00   -0.46989E+01 44892   0.102E+01    0.612E+00
DAV:   2    -0.125295903598E+04    0.33441E+00   -0.39473E+00 62016   0.429E+00    0.630E+00
DAV:   3    -0.125283392110E+04    0.12511E+00   -0.95606E-01 61848   0.172E+00    0.264E+00
DAV:   4    -0.125281733586E+04    0.16585E-01   -0.12048E-01 64452   0.757E-01    0.220E+00
DAV:   5    -0.125281459385E+04    0.27420E-02   -0.37547E-02 61728   0.442E-01    0.111E+00
DAV:   6    -0.125281041446E+04    0.41794E-02   -0.28457E-02 64968   0.319E-01    0.406E-01
DAV:   7    -0.125281008179E+04    0.33266E-03   -0.73772E-03 64704   0.187E-01    0.205E-01
DAV:   8    -0.125281022668E+04   -0.14489E-03   -0.20888E-03 57732   0.692E-02    0.119E-01
DAV:   9    -0.125281018656E+04    0.40127E-04   -0.38936E-04 39816   0.374E-02
   8 F= -.12528102E+04 E0= -.12528102E+04  d E =-.246466E+00  mag=    40.0039
       N       E                     dE             d eps       ncg     rms          rms(c)
DAV:   1    -0.125301807942E+04   -0.20785E+00   -0.61903E+01 43008   0.108E+01    0.476E+00
DAV:   2    -0.125317815455E+04   -0.16008E+00   -0.45953E+00 58800   0.435E+00    0.677E+00
DAV:   3    -0.125310713304E+04    0.71022E-01   -0.62467E-01 54444   0.129E+00    0.492E+00
DAV:   4    -0.125304328032E+04    0.63853E-01   -0.49100E-01 62592   0.113E+00    0.368E+00
DAV:   5    -0.125304224921E+04    0.10311E-02   -0.17150E-01 57072   0.790E-01    0.198E+00
DAV:   6    -0.125302761783E+04    0.14631E-01   -0.85678E-02 63960   0.517E-01    0.128E+00
DAV:   7    -0.125301797702E+04    0.96408E-02   -0.65754E-02 57132   0.400E-01    0.785E-01
DAV:   8    -0.125301755373E+04    0.42329E-03   -0.13046E-02 63300   0.251E-01    0.349E-01
DAV:   9    -0.125301701661E+04    0.53712E-03   -0.38552E-03 58608   0.848E-02    0.227E-01
DAV:  10    -0.125301683104E+04    0.18558E-03   -0.81790E-04 54804   0.482E-02    0.132E-01
DAV:  11    -0.125301674938E+04    0.81654E-04   -0.48369E-04 41892   0.319E-02
   9 F= -.12530167E+04 E0= -.12530167E+04  d E =-.206563E+00  mag=    40.0026
       N       E                     dE             d eps       ncg     rms          rms(c)
DAV:   1    -0.125321449118E+04   -0.19766E+00   -0.33885E+01 43032   0.823E+00    0.255E+00
DAV:   2    -0.125328783227E+04   -0.73341E-01   -0.11580E+00 55896   0.173E+00    0.207E+00
DAV:   3    -0.125328030969E+04    0.75226E-02   -0.10360E-01 58692   0.620E-01    0.947E-01
DAV:   4    -0.125327577711E+04    0.45326E-02   -0.24289E-02 62532   0.276E-01    0.647E-01
DAV:   5    -0.125327460573E+04    0.11714E-02   -0.92019E-03 63396   0.168E-01    0.280E-01
DAV:   6    -0.125327462629E+04   -0.20560E-04   -0.20555E-03 61920   0.827E-02    0.161E-01
DAV:   7    -0.125327463762E+04   -0.11325E-04   -0.76601E-04 49368   0.434E-02
  10 F= -.12532746E+04 E0= -.12532746E+04  d E =-.257888E+00  mag=    40.0019
       N       E                     dE             d eps       ncg     rms          rms(c)
DAV:   1    -0.125321953371E+04    0.55093E-01   -0.13911E+02 43008   0.166E+01    0.433E+00
DAV:   2    -0.125360445560E+04   -0.38492E+00   -0.46624E+00 56388   0.339E+00    0.352E+00
DAV:   3    -0.125358303401E+04    0.21422E-01   -0.23757E-01 60072   0.916E-01    0.198E+00
DAV:   4    -0.125356204834E+04    0.20986E-01   -0.12355E-01 63876   0.574E-01    0.137E+00
DAV:   5    -0.125355594134E+04    0.61070E-02   -0.32140E-02 61452   0.342E-01    0.514E-01
DAV:   6    -0.125355556573E+04    0.37562E-03   -0.16756E-02 63312   0.216E-01    0.266E-01
DAV:   7    -0.125355569939E+04   -0.13366E-03   -0.51284E-03 60192   0.120E-01    0.189E-01
DAV:   8    -0.125355572361E+04   -0.24221E-04   -0.10989E-03 56424   0.557E-02    0.117E-01
DAV:   9    -0.125355566853E+04    0.55082E-04   -0.33116E-04 36936   0.341E-02
  11 F= -.12535557E+04 E0= -.12535557E+04  d E =-.281031E+00  mag=    40.0013
       N       E                     dE             d eps       ncg     rms          rms(c)
DAV:   1    -0.125366877078E+04   -0.11305E+00   -0.16359E+01 43008   0.569E+00    0.185E+00
DAV:   2    -0.125367198353E+04   -0.32128E-02   -0.65953E-01 55656   0.138E+00    0.147E+00
DAV:   3    -0.125366691219E+04    0.50713E-02   -0.76971E-02 62496   0.520E-01    0.946E-01
DAV:   4    -0.125366250308E+04    0.44091E-02   -0.33633E-02 65292   0.337E-01    0.719E-01
DAV:   5    -0.125366144018E+04    0.10629E-02   -0.93761E-03 55152   0.183E-01    0.332E-01
DAV:   6    -0.125366106394E+04    0.37624E-03   -0.60687E-03 63264   0.141E-01    0.161E-01
DAV:   7    -0.125366117744E+04   -0.11350E-03   -0.24149E-03 54708   0.731E-02    0.120E-01
DAV:   8    -0.125366114623E+04    0.31213E-04   -0.23102E-04 35628   0.405E-02
  12 F= -.12536611E+04 E0= -.12536611E+04  d E =-.105478E+00  mag=    40.0010
       N       E                     dE             d eps       ncg     rms          rms(c)
DAV:   1    -0.125307984279E+04    0.58133E+00   -0.29702E+02 43008   0.242E+01    0.493E+00
DAV:   2    -0.125392296541E+04   -0.84312E+00   -0.84709E+00 51624   0.438E+00    0.345E+00
DAV:   3    -0.125392096776E+04    0.19976E-02   -0.35946E-01 60852   0.968E-01    0.168E+00
DAV:   4    -0.125389276278E+04    0.28205E-01   -0.84470E-02 62244   0.571E-01    0.120E+00
DAV:   5    -0.125388830884E+04    0.44539E-02   -0.59711E-02 60900   0.394E-01    0.570E-01
DAV:   6    -0.125388772777E+04    0.58107E-03   -0.11485E-02 61308   0.198E-01    0.301E-01
DAV:   7    -0.125388789827E+04   -0.17050E-03   -0.77176E-03 60936   0.136E-01    0.190E-01
DAV:   8    -0.125388781194E+04    0.86328E-04   -0.11584E-03 57732   0.710E-02    0.103E-01
DAV:   9    -0.125388781117E+04    0.77089E-06   -0.60000E-04 46464   0.387E-02
  13 F= -.12538878E+04 E0= -.12538878E+04  d E =-.226665E+00  mag=    40.0007
       N       E                     dE             d eps       ncg     rms          rms(c)
DAV:   1    -0.125381715578E+04    0.70656E-01   -0.19315E+01 43008   0.615E+00    0.187E+00
DAV:   2    -0.125388058444E+04   -0.63429E-01   -0.71593E-01 56028   0.139E+00    0.182E+00
DAV:   3    -0.125387640745E+04    0.41770E-02   -0.56114E-02 60072   0.464E-01    0.958E-01
DAV:   4    -0.125387361840E+04    0.27890E-02   -0.20266E-02 64008   0.255E-01    0.752E-01
DAV:   5    -0.125387309290E+04    0.52550E-03   -0.70403E-03 54900   0.139E-01    0.324E-01
DAV:   6    -0.125387271746E+04    0.37544E-03   -0.43774E-03 64224   0.120E-01    0.135E-01
DAV:   7    -0.125387276045E+04   -0.42989E-04   -0.18266E-03 55920   0.624E-02    0.931E-02
DAV:   8    -0.125387274130E+04    0.19157E-04   -0.25734E-04 34800   0.315E-02
  14 F= -.12538727E+04 E0= -.12538727E+04  d E =0.150699E-01  mag=    40.0005
       N       E                     dE             d eps       ncg     rms          rms(c)
DAV:   1    -0.125387849018E+04   -0.57297E-02   -0.15202E+01 43008   0.544E+00    0.943E-01
DAV:   2    -0.125392040811E+04   -0.41918E-01   -0.44889E-01 54588   0.105E+00    0.956E-01
DAV:   3    -0.125391974971E+04    0.65840E-03   -0.24668E-02 60444   0.267E-01    0.531E-01
DAV:   4    -0.125391809809E+04    0.16516E-02   -0.75009E-03 62688   0.181E-01    0.455E-01
DAV:   5    -0.125391789367E+04    0.20442E-03   -0.58586E-03 54672   0.129E-01    0.238E-01
DAV:   6    -0.125391771324E+04    0.18043E-03   -0.19166E-03 59820   0.715E-02    0.142E-01
DAV:   7    -0.125391764741E+04    0.65829E-04   -0.12133E-03 56352   0.550E-02    0.777E-02
DAV:   8    -0.125391764393E+04    0.34756E-05   -0.15016E-04 31884   0.306E-02
  15 F= -.12539176E+04 E0= -.12539176E+04  d E =-.449026E-01  mag=    40.0004
       N       E                     dE             d eps       ncg     rms          rms(c)
DAV:   1    -0.125393151379E+04   -0.13866E-01   -0.25054E+00 43032   0.219E+00    0.695E-01
DAV:   2    -0.125393442166E+04   -0.29079E-02   -0.10690E-01 60108   0.619E-01    0.835E-01
DAV:   3    -0.125393309742E+04    0.13242E-02   -0.15958E-02 58056   0.210E-01    0.482E-01
DAV:   4    -0.125393248232E+04    0.61509E-03   -0.48442E-03 62688   0.118E-01    0.404E-01
DAV:   5    -0.125393227883E+04    0.20349E-03   -0.97900E-04 53748   0.736E-02    0.205E-01
DAV:   6    -0.125393214650E+04    0.13233E-03   -0.79409E-04 56556   0.536E-02    0.828E-02
DAV:   7    -0.125393213549E+04    0.11011E-04   -0.20173E-04 31176   0.399E-02
  16 F= -.12539321E+04 E0= -.12539321E+04  d E =-.144916E-01  mag=    40.0003
       N       E                     dE             d eps       ncg     rms          rms(c)
DAV:   1    -0.125394440748E+04   -0.12261E-01   -0.18760E+00 43032   0.191E+00    0.550E-01
DAV:   2    -0.125394861210E+04   -0.42046E-02   -0.88517E-02 56748   0.558E-01    0.784E-01
DAV:   3    -0.125394762081E+04    0.99128E-03   -0.91707E-03 54660   0.163E-01    0.541E-01
DAV:   4    -0.125394677103E+04    0.84979E-03   -0.52369E-03 61164   0.124E-01    0.434E-01
DAV:   5    -0.125394666407E+04    0.10696E-03   -0.16840E-03 56208   0.867E-02    0.249E-01
DAV:   6    -0.125394651966E+04    0.14440E-03   -0.12885E-03 60516   0.611E-02    0.137E-01
DAV:   7    -0.125394646594E+04    0.53723E-04   -0.51348E-04 43500   0.394E-02
  17 F= -.12539465E+04 E0= -.12539465E+04  d E =-.143305E-01  mag=    40.0002
       N       E                     dE             d eps       ncg     rms          rms(c)
DAV:   1    -0.125395731966E+04   -0.10800E-01   -0.41935E+00 43008   0.283E+00    0.438E-01
DAV:   2    -0.125396809337E+04   -0.10774E-01   -0.11632E-01 52848   0.504E-01    0.339E-01
DAV:   3    -0.125396799422E+04    0.99151E-04   -0.49086E-03 62532   0.108E-01    0.192E-01
DAV:   4    -0.125396765447E+04    0.33976E-03   -0.11402E-03 56388   0.705E-02    0.151E-01
DAV:   5    -0.125396761547E+04    0.38998E-04   -0.10167E-03 51096   0.526E-02    0.669E-02
DAV:   6    -0.125396758612E+04    0.29354E-04   -0.15891E-04 27216   0.281E-02
  18 F= -.12539676E+04 E0= -.12539676E+04  d E =-.211202E-01  mag=    40.0002
       N       E                     dE             d eps       ncg     rms          rms(c)
DAV:   1    -0.125397583404E+04   -0.82186E-02   -0.15200E+00 43224   0.170E+00    0.330E-01
DAV:   2    -0.125397961933E+04   -0.37853E-02   -0.46580E-02 53784   0.327E-01    0.291E-01
DAV:   3    -0.125397951222E+04    0.10711E-03   -0.25177E-03 59160   0.891E-02    0.155E-01
DAV:   4    -0.125397934719E+04    0.16503E-03   -0.77487E-04 52056   0.579E-02    0.124E-01
DAV:   5    -0.125397932822E+04    0.18967E-04   -0.47570E-04 44484   0.407E-02
  19 F= -.12539793E+04 E0= -.12539793E+04  d E =-.117421E-01  mag=    40.0002
       N       E                     dE             d eps       ncg     rms          rms(c)
DAV:   1    -0.125338414049E+04    0.59521E+00   -0.28310E+02 43008   0.232E+01    0.364E+00
DAV:   2    -0.125414690075E+04   -0.76276E+00   -0.78392E+00 50364   0.405E+00    0.216E+00
DAV:   3    -0.125414649531E+04    0.40544E-03   -0.29889E-01 63168   0.793E-01    0.128E+00
DAV:   4    -0.125412885830E+04    0.17637E-01   -0.43096E-02 61980   0.403E-01    0.853E-01
DAV:   5    -0.125412035445E+04    0.85038E-02   -0.39255E-02 59100   0.388E-01    0.372E-01
DAV:   6    -0.125412079305E+04   -0.43860E-03   -0.15448E-02 54204   0.198E-01    0.257E-01
DAV:   7    -0.125412062604E+04    0.16701E-03   -0.55322E-03 60012   0.120E-01    0.139E-01
DAV:   8    -0.125412067842E+04   -0.52384E-04   -0.86746E-04 52692   0.555E-02
  20 F= -.12541207E+04 E0= -.12541207E+04  d E =-.141350E+00  mag=    40.0001
       N       E                     dE             d eps       ncg     rms          rms(c)
DAV:   1    -0.125411578551E+04    0.48405E-02   -0.18773E+00 43416   0.193E+00    0.672E-01
DAV:   2    -0.125411730950E+04   -0.15240E-02   -0.78331E-02 55812   0.466E-01    0.614E-01
DAV:   3    -0.125411651603E+04    0.79347E-03   -0.72379E-03 59172   0.175E-01    0.320E-01
DAV:   4    -0.125411611929E+04    0.39674E-03   -0.28559E-03 59844   0.107E-01    0.249E-01
DAV:   5    -0.125411609685E+04    0.22447E-04   -0.11976E-03 55044   0.598E-02    0.117E-01
DAV:   6    -0.125411605553E+04    0.41313E-04   -0.42093E-04 43068   0.374E-02
  21 F= -.12541161E+04 E0= -.12541161E+04  d E =0.462289E-02  mag=    40.0001
       N       E                     dE             d eps       ncg     rms          rms(c)
DAV:   1    -0.125411515864E+04    0.93820E-03   -0.10406E+01 43008   0.443E+00    0.722E-01
DAV:   2    -0.125414223062E+04   -0.27072E-01   -0.28608E-01 52104   0.794E-01    0.507E-01
DAV:   3    -0.125414224692E+04   -0.16299E-04   -0.12100E-02 61944   0.167E-01    0.277E-01
DAV:   4    -0.125414134749E+04    0.89943E-03   -0.30497E-03 61476   0.121E-01    0.211E-01
DAV:   5    -0.125414120851E+04    0.13898E-03   -0.26172E-03 57624   0.929E-02    0.101E-01
DAV:   6    -0.125414118155E+04    0.26962E-04   -0.10064E-03 54204   0.539E-02    0.691E-02
DAV:   7    -0.125414117473E+04    0.68199E-05   -0.27971E-04 36792   0.279E-02
  22 F= -.12541412E+04 E0= -.12541412E+04  d E =-.251192E-01  mag=    40.0001
       N       E                     dE             d eps       ncg     rms          rms(c)
DAV:   1    -0.125413418385E+04    0.69977E-02   -0.66401E-01 43320   0.112E+00    0.166E-01
DAV:   2    -0.125413585938E+04   -0.16755E-02   -0.17815E-02 52020   0.202E-01    0.132E-01
DAV:   3    -0.125413584537E+04    0.14011E-04   -0.76200E-04 52272   0.438E-02
  23 F= -.12541358E+04 E0= -.12541358E+04  d E =0.532936E-02  mag=    40.0001
       N       E                     dE             d eps       ncg     rms          rms(c)
DAV:   1    -0.125414059418E+04   -0.47348E-02   -0.12787E+00 43248   0.152E+00    0.290E-01
DAV:   2    -0.125414389052E+04   -0.32963E-02   -0.36703E-02 54024   0.285E-01    0.224E-01
DAV:   3    -0.125414391294E+04   -0.22417E-04   -0.20903E-03 61632   0.732E-02    0.104E-01
DAV:   4    -0.125414382493E+04    0.88011E-04   -0.39887E-04 43020   0.415E-02
  24 F= -.12541438E+04 E0= -.12541438E+04  d E =-.797956E-02  mag=    40.0001
       N       E                     dE             d eps       ncg     rms          rms(c)
DAV:   1    -0.125414887786E+04   -0.49649E-02   -0.10006E+00 43200   0.134E+00    0.254E-01
DAV:   2    -0.125415152561E+04   -0.26477E-02   -0.28265E-02 54156   0.256E-01    0.236E-01
DAV:   3    -0.125415145063E+04    0.74973E-04   -0.14353E-03 58788   0.648E-02    0.116E-01
DAV:   4    -0.125415136739E+04    0.83240E-04   -0.31602E-04 40812   0.398E-02
  25 F= -.12541514E+04 E0= -.12541514E+04  d E =-.754246E-02  mag=    40.0000
       N       E                     dE             d eps       ncg     rms          rms(c)
DAV:   1    -0.125415582418E+04   -0.43736E-02   -0.60051E-01 43236   0.105E+00    0.211E-01
DAV:   2    -0.125415725934E+04   -0.14352E-02   -0.16080E-02 53316   0.189E-01    0.153E-01
DAV:   3    -0.125415725975E+04   -0.41025E-06   -0.94282E-04 55656   0.499E-02
  26 F= -.12541573E+04 E0= -.12541573E+04  d E =-.589236E-02  mag=    40.0000
       N       E                     dE             d eps       ncg     rms          rms(c)
DAV:   1    -0.125415895382E+04   -0.16945E-02   -0.18395E-01 43344   0.594E-01    0.125E-01
DAV:   2    -0.125415944243E+04   -0.48860E-03   -0.69736E-03 55440   0.151E-01    0.178E-01
DAV:   3    -0.125415938537E+04    0.57054E-04   -0.63375E-04 47328   0.442E-02
  27 F= -.12541594E+04 E0= -.12541594E+04  d E =-.212562E-02  mag=    40.0000
       N       E                     dE             d eps       ncg     rms          rms(c)
DAV:   1    -0.125416421615E+04   -0.47737E-02   -0.23065E+00 43104   0.204E+00    0.414E-01
DAV:   2    -0.125417039361E+04   -0.61775E-02   -0.68159E-02 54816   0.396E-01    0.409E-01
DAV:   3    -0.125417020277E+04    0.19084E-03   -0.36541E-03 61164   0.100E-01    0.231E-01
DAV:   4    -0.125416998532E+04    0.21746E-03   -0.13007E-03 56424   0.683E-02    0.166E-01
DAV:   5    -0.125416995875E+04    0.26570E-04   -0.66481E-04 48828   0.436E-02
  28 F= -.12541700E+04 E0= -.12541700E+04  d E =-.105734E-01  mag=    40.0000
       N       E                     dE             d eps       ncg     rms          rms(c)
DAV:   1    -0.125417430080E+04   -0.43155E-02   -0.17977E+00 43080   0.181E+00    0.439E-01
DAV:   2    -0.125417981579E+04   -0.55150E-02   -0.69413E-02 54960   0.421E-01    0.599E-01
DAV:   3    -0.125417931441E+04    0.50139E-03   -0.41234E-03 56040   0.110E-01    0.420E-01
DAV:   4    -0.125417892663E+04    0.38778E-03   -0.35470E-03 58356   0.974E-02    0.323E-01
DAV:   5    -0.125417896130E+04   -0.34668E-04   -0.12755E-03 52008   0.564E-02    0.170E-01
DAV:   6    -0.125417881593E+04    0.14536E-03   -0.15474E-04 32496   0.335E-02    0.118E-01
DAV:   7    -0.125417875005E+04    0.65881E-04   -0.73989E-04 49596   0.424E-02
  29 F= -.12541788E+04 E0= -.12541788E+04  d E =-.879131E-02  mag=    40.0000
       N       E                     dE             d eps       ncg     rms          rms(c)
DAV:   1    -0.125418412576E+04   -0.53098E-02   -0.73962E-01 43128   0.117E+00    0.265E-01
DAV:   2    -0.125418608903E+04   -0.19633E-02   -0.27199E-02 56148   0.274E-01    0.336E-01
DAV:   3    -0.125418588086E+04    0.20817E-03   -0.20013E-03 56208   0.791E-02    0.202E-01
DAV:   4    -0.125418576418E+04    0.11668E-03   -0.87034E-04 51648   0.536E-02    0.159E-01
DAV:   5    -0.125418575822E+04    0.59654E-05   -0.28110E-04 32496   0.310E-02
  30 F= -.12541858E+04 E0= -.12541858E+04  d E =-.700816E-02  mag=    40.0000
       N       E                     dE             d eps       ncg     rms          rms(c)
DAV:   1    -0.125419101652E+04   -0.52523E-02   -0.24706E+00 43152   0.210E+00    0.390E-01
DAV:   2    -0.125419752230E+04   -0.65058E-02   -0.69081E-02 53016   0.384E-01    0.308E-01
DAV:   3    -0.125419750668E+04    0.15616E-04   -0.37322E-03 61884   0.942E-02    0.164E-01
DAV:   4    -0.125419731467E+04    0.19202E-03   -0.10193E-03 55068   0.604E-02    0.123E-01
DAV:   5    -0.125419728634E+04    0.28332E-04   -0.61643E-04 47244   0.444E-02
  31 F= -.12541973E+04 E0= -.12541973E+04  d E =-.115281E-01  mag=    40.0000
       N       E                     dE             d eps       ncg     rms          rms(c)
DAV:   1    -0.125420161622E+04   -0.43016E-02   -0.68944E-01 43272   0.111E+00    0.244E-01
DAV:   2    -0.125420364925E+04   -0.20330E-02   -0.22961E-02 53892   0.237E-01    0.278E-01
DAV:   3    -0.125420354472E+04    0.10453E-03   -0.14881E-03 56532   0.661E-02    0.166E-01
DAV:   4    -0.125420345778E+04    0.86943E-04   -0.63456E-04 48276   0.449E-02
  32 F= -.12542035E+04 E0= -.12542035E+04  d E =-.617144E-02  mag=    40.0000
       N       E                     dE             d eps       ncg     rms          rms(c)
DAV:   1    -0.125420902614E+04   -0.54814E-02   -0.15352E+00 43056   0.165E+00    0.313E-01
DAV:   2    -0.125421291696E+04   -0.38908E-02   -0.40592E-02 51576   0.290E-01    0.192E-01
DAV:   3    -0.125421299453E+04   -0.77574E-04   -0.22571E-03 61308   0.704E-02    0.103E-01
DAV:   4    -0.125421288274E+04    0.11180E-03   -0.32340E-04 39840   0.361E-02    0.687E-02
DAV:   5    -0.125421285714E+04    0.25598E-04   -0.31036E-04 33492   0.371E-02
  33 F= -.12542129E+04 E0= -.12542129E+04  d E =-.939936E-02  mag=    40.0000
       N       E                     dE             d eps       ncg     rms          rms(c)
DAV:   1    -0.125421701750E+04   -0.41348E-02   -0.53146E-01 43584   0.976E-01    0.184E-01
DAV:   2    -0.125421845715E+04   -0.14396E-02   -0.15411E-02 54312   0.186E-01    0.155E-01
DAV:   3    -0.125421845425E+04    0.28987E-05   -0.90565E-04 54288   0.487E-02
  34 F= -.12542185E+04 E0= -.12542185E+04  d E =-.559711E-02  mag=    40.0000
       N       E                     dE             d eps       ncg     rms          rms(c)
DAV:   1    -0.125422349396E+04   -0.50368E-02   -0.15556E+00 43104   0.167E+00    0.331E-01
DAV:   2    -0.125422755759E+04   -0.40636E-02   -0.44318E-02 54384   0.316E-01    0.312E-01
DAV:   3    -0.125422743869E+04    0.11890E-03   -0.24467E-03 61080   0.780E-02    0.181E-01
DAV:   4    -0.125422727218E+04    0.16651E-03   -0.92673E-04 53856   0.545E-02    0.125E-01
DAV:   5    -0.125422725269E+04    0.19494E-04   -0.43057E-04 44376   0.347E-02
  35 F= -.12542273E+04 E0= -.12542273E+04  d E =-.879844E-02  mag=    40.0000
       N       E                     dE             d eps       ncg     rms          rms(c)
DAV:   1    -0.125423119811E+04   -0.39259E-02   -0.46242E-01 43152   0.911E-01    0.214E-01
DAV:   2    -0.125423256887E+04   -0.13708E-02   -0.16610E-02 54276   0.208E-01    0.270E-01
DAV:   3    -0.125423246392E+04    0.10495E-03   -0.11282E-03 53964   0.579E-02    0.174E-01
DAV:   4    -0.125423237800E+04    0.85913E-04   -0.59842E-04 44904   0.397E-02
  36 F= -.12542324E+04 E0= -.12542324E+04  d E =-.512532E-02  mag=    40.0000
       N       E                     dE             d eps       ncg     rms          rms(c)
DAV:   1    -0.125423801929E+04   -0.55554E-02   -0.21023E+00 43056   0.192E+00    0.351E-01
DAV:   2    -0.125424344602E+04   -0.54267E-02   -0.55195E-02 51468   0.333E-01    0.206E-01
DAV:   3    -0.125424355484E+04   -0.10882E-03   -0.27106E-03 61668   0.745E-02    0.113E-01
DAV:   4    -0.125424341749E+04    0.13735E-03   -0.37991E-04 42384   0.375E-02    0.738E-02
DAV:   5    -0.125424337882E+04    0.38667E-04   -0.35400E-04 37500   0.391E-02
  37 F= -.12542434E+04 E0= -.12542434E+04  d E =-.110008E-01  mag=    40.0000
       N       E                     dE             d eps       ncg     rms          rms(c)
DAV:   1    -0.125424792900E+04   -0.45115E-02   -0.72825E-01 43536   0.114E+00    0.209E-01
DAV:   2    -0.125424989645E+04   -0.19675E-02   -0.20419E-02 53688   0.210E-01    0.159E-01
DAV:   3    -0.125424991868E+04   -0.22225E-04   -0.11445E-03 57096   0.517E-02    0.803E-02
DAV:   4    -0.125424986393E+04    0.54745E-04   -0.19802E-04 34500   0.326E-02
  38 F= -.12542499E+04 E0= -.12542499E+04  d E =-.648511E-02  mag=    40.0000
       N       E                     dE             d eps       ncg     rms          rms(c)
DAV:   1    -0.125425394979E+04   -0.40311E-02   -0.73460E-01 43356   0.114E+00    0.232E-01
DAV:   2    -0.125425591075E+04   -0.19610E-02   -0.22189E-02 55164   0.226E-01    0.240E-01
DAV:   3    -0.125425585741E+04    0.53335E-04   -0.14312E-03 59136   0.595E-02    0.143E-01
DAV:   4    -0.125425579474E+04    0.62676E-04   -0.56666E-04 48672   0.439E-02
  39 F= -.12542558E+04 E0= -.12542558E+04  d E =-.593080E-02  mag=    40.0000
       N       E                     dE             d eps       ncg     rms          rms(c)
DAV:   1    -0.125425823422E+04   -0.23768E-02   -0.19038E-01 43224   0.580E-01    0.172E-01
DAV:   2    -0.125425880108E+04   -0.56685E-03   -0.91755E-03 55512   0.164E-01    0.254E-01
DAV:   3    -0.125425868871E+04    0.11237E-03   -0.71497E-04 48072   0.467E-02    0.179E-01
DAV:   4    -0.125425860153E+04    0.87185E-04   -0.56899E-04 42360   0.352E-02
  40 F= -.12542586E+04 E0= -.12542586E+04  d E =-.280679E-02  mag=    40.0000
       N       E                     dE             d eps       ncg     rms          rms(c)
DAV:   1    -0.125426415076E+04   -0.54620E-02   -0.22976E+00 43032   0.201E+00    0.406E-01
DAV:   2    -0.125427000983E+04   -0.58591E-02   -0.65886E-02 55140   0.385E-01    0.352E-01
DAV:   3    -0.125426989916E+04    0.11067E-03   -0.42139E-03 60252   0.105E-01    0.181E-01
DAV:   4    -0.125426969527E+04    0.20389E-03   -0.10110E-03 55380   0.611E-02    0.136E-01
DAV:   5    -0.125426965253E+04    0.42742E-04   -0.56085E-04 47340   0.445E-02
  41 F= -.12542697E+04 E0= -.12542697E+04  d E =-.110510E-01  mag=    40.0000
       N       E                     dE             d eps       ncg     rms          rms(c)
DAV:   1    -0.125427412936E+04   -0.44341E-02   -0.12138E+00 43440   0.148E+00    0.324E-01
DAV:   2    -0.125427778356E+04   -0.36542E-02   -0.43730E-02 55116   0.331E-01    0.429E-01
DAV:   3    -0.125427756198E+04    0.22158E-03   -0.27368E-03 57624   0.865E-02    0.293E-01
DAV:   4    -0.125427739491E+04    0.16706E-03   -0.20791E-03 57924   0.785E-02    0.223E-01
DAV:   5    -0.125427740497E+04   -0.10056E-04   -0.77678E-04 48720   0.425E-02
  42 F= -.12542774E+04 E0= -.12542774E+04  d E =-.775244E-02  mag=    40.0000
       N       E                     dE             d eps       ncg     rms          rms(c)
DAV:   1    -0.125428180802E+04   -0.44131E-02   -0.58075E-01 43176   0.102E+00    0.214E-01
DAV:   2    -0.125428336958E+04   -0.15616E-02   -0.18888E-02 54900   0.219E-01    0.241E-01
DAV:   3    -0.125428329562E+04    0.73954E-04   -0.12437E-03 57396   0.599E-02    0.132E-01
DAV:   4    -0.125428323318E+04    0.62439E-04   -0.35989E-04 40332   0.361E-02
  43 F= -.12542832E+04 E0= -.12542832E+04  d E =-.582821E-02  mag=    40.0000
       N       E                     dE             d eps       ncg     rms          rms(c)
DAV:   1    -0.125428813752E+04   -0.48419E-02   -0.83267E-01 43308   0.120E+00    0.210E-01
DAV:   2    -0.125429024774E+04   -0.21102E-02   -0.21364E-02 52908   0.206E-01    0.109E-01
DAV:   3    -0.125429030321E+04   -0.55469E-04   -0.10475E-03 56328   0.432E-02    0.686E-02
DAV:   4    -0.125429025621E+04    0.46996E-04   -0.87402E-05 27852   0.208E-02
  44 F= -.12542903E+04 E0= -.12542903E+04  d E =-.702303E-02  mag=    40.0000
       N       E                     dE             d eps       ncg     rms          rms(c)
DAV:   1    -0.125422896050E+04    0.61343E-01   -0.12803E+01 43200   0.474E+00    0.780E-01
DAV:   2    -0.125426319025E+04   -0.34230E-01   -0.34326E-01 53304   0.826E-01    0.482E-01
DAV:   3    -0.125426352069E+04   -0.33045E-03   -0.13389E-02 62796   0.163E-01    0.262E-01
DAV:   4    -0.125426276975E+04    0.75094E-03   -0.18929E-03 60624   0.880E-02    0.193E-01
DAV:   5    -0.125426250415E+04    0.26560E-03   -0.15934E-03 54660   0.732E-02    0.764E-02
DAV:   6    -0.125426253379E+04   -0.29644E-04   -0.55459E-04 47592   0.398E-02
  45 F= -.12542625E+04 E0= -.12542625E+04  d E =0.277224E-01  mag=    40.0000
       N       E                     dE             d eps       ncg     rms          rms(c)
DAV:   1    -0.125419255970E+04    0.69944E-01   -0.46947E+01 43200   0.904E+00    0.152E+00
DAV:   2    -0.125431797611E+04   -0.12542E+00   -0.12474E+00 51468   0.154E+00    0.843E-01
DAV:   3    -0.125431928359E+04   -0.13075E-02   -0.46705E-02 62460   0.287E-01    0.482E-01
DAV:   4    -0.125431662135E+04    0.26622E-02   -0.68054E-03 58848   0.140E-01    0.300E-01
DAV:   5    -0.125431546987E+04    0.11515E-02   -0.46603E-03 52680   0.130E-01    0.108E-01
DAV:   6    -0.125431562792E+04   -0.15805E-03   -0.21425E-03 57312   0.699E-02    0.907E-02
DAV:   7    -0.125431559938E+04    0.28541E-04   -0.26698E-04 33672   0.304E-02
  46 F= -.12543156E+04 E0= -.12543156E+04  d E =-.530656E-01  mag=    40.0000
       N       E                     dE             d eps       ncg     rms          rms(c)
DAV:   1    -0.125431303336E+04    0.25946E-02   -0.21094E-01 43200   0.629E-01    0.233E-01
DAV:   2    -0.125431342324E+04   -0.38987E-03   -0.11690E-02 60672   0.211E-01    0.318E-01
DAV:   3    -0.125431329625E+04    0.12698E-03   -0.16213E-03 57732   0.655E-02    0.228E-01
DAV:   4    -0.125431315268E+04    0.14357E-03   -0.62370E-04 49764   0.405E-02    0.188E-01
DAV:   5    -0.125431315850E+04   -0.58208E-05   -0.60049E-04 49548   0.357E-02
  47 F= -.12543132E+04 E0= -.12543132E+04  d E =0.244088E-02  mag=    40.0000
       N       E                     dE             d eps       ncg     rms          rms(c)
DAV:   1    -0.125431850432E+04   -0.53516E-02   -0.38822E+00 43056   0.260E+00    0.465E-01
DAV:   2    -0.125432897700E+04   -0.10473E-01   -0.10468E-01 54432   0.458E-01    0.335E-01
DAV:   3    -0.125432908203E+04   -0.10504E-03   -0.42781E-03 62640   0.100E-01    0.193E-01
DAV:   4    -0.125432885763E+04    0.22441E-03   -0.51472E-04 48396   0.409E-02    0.129E-01
DAV:   5    -0.125432871973E+04    0.13790E-03   -0.59112E-04 47016   0.465E-02    0.464E-02
DAV:   6    -0.125432873263E+04   -0.12897E-04   -0.23739E-04 33144   0.270E-02
  48 F= -.12543287E+04 E0= -.12543287E+04  d E =-.155741E-01  mag=    40.0000
       N       E                     dE             d eps       ncg     rms          rms(c)
DAV:   1    -0.125433214932E+04   -0.34296E-02   -0.27725E-01 43512   0.696E-01    0.141E-01
DAV:   2    -0.125433290782E+04   -0.75850E-03   -0.82371E-03 55080   0.136E-01    0.118E-01
DAV:   3    -0.125433290483E+04    0.29901E-05   -0.48995E-04 47592   0.352E-02
  49 F= -.12543329E+04 E0= -.12543329E+04  d E =-.417221E-02  mag=    40.0000
       N       E                     dE             d eps       ncg     rms          rms(c)
DAV:   1    -0.125432213836E+04    0.10769E-01   -0.15643E+01 43296   0.521E+00    0.905E-01
DAV:   2    -0.125436442473E+04   -0.42286E-01   -0.41224E-01 51756   0.887E-01    0.490E-01
DAV:   3    -0.125436512978E+04   -0.70506E-03   -0.15643E-02 61860   0.161E-01    0.272E-01
DAV:   4    -0.125436423944E+04    0.89035E-03   -0.20535E-03 58848   0.821E-02    0.166E-01
DAV:   5    -0.125436390976E+04    0.32968E-03   -0.17630E-03 51348   0.772E-02    0.603E-02
DAV:   6    -0.125436397115E+04   -0.61398E-04   -0.71270E-04 49308   0.406E-02
  50 F= -.12543640E+04 E0= -.12543640E+04  d E =-.310663E-01  mag=    40.0000
       N       E                     dE             d eps       ncg     rms          rms(c)
DAV:   1    -0.125434427614E+04    0.19634E-01   -0.26845E+00 43404   0.217E+00    0.371E-01
DAV:   2    -0.125435145301E+04   -0.71769E-02   -0.73407E-02 53760   0.403E-01    0.309E-01
DAV:   3    -0.125435147966E+04   -0.26654E-04   -0.40762E-03 60108   0.960E-02    0.154E-01
DAV:   4    -0.125435125476E+04    0.22490E-03   -0.68010E-04 53700   0.560E-02    0.129E-01
DAV:   5    -0.125435119322E+04    0.61547E-04   -0.56312E-04 48768   0.423E-02
  51 F= -.12543512E+04 E0= -.12543512E+04  d E =0.127779E-01  mag=    40.0000
       N       E                     dE             d eps       ncg     rms          rms(c)
DAV:   1    -0.125434274030E+04    0.85145E-02   -0.72470E-01 43128   0.111E+00    0.225E-01
DAV:   2    -0.125434457360E+04   -0.18333E-02   -0.19727E-02 55152   0.208E-01    0.166E-01
DAV:   3    -0.125434460581E+04   -0.32215E-04   -0.15144E-03 60060   0.584E-02    0.777E-02
DAV:   4    -0.125434455316E+04    0.52650E-04   -0.15989E-04 30708   0.296E-02
  52 F= -.12543446E+04 E0= -.12543446E+04  d E =0.664006E-02  mag=    40.0000
       N       E                     dE             d eps       ncg     rms          rms(c)
DAV:   1    -0.125435034457E+04   -0.57388E-02   -0.20977E+00 43296   0.189E+00    0.353E-01
DAV:   2    -0.125435603119E+04   -0.56866E-02   -0.56564E-02 53100   0.340E-01    0.235E-01
DAV:   3    -0.125435619654E+04   -0.16536E-03   -0.33656E-03 63804   0.870E-02    0.128E-01
DAV:   4    -0.125435607710E+04    0.11944E-03   -0.24815E-04 35556   0.320E-02    0.896E-02
DAV:   5    -0.125435602272E+04    0.54388E-04   -0.44659E-04 38544   0.321E-02
  53 F= -.12543560E+04 E0= -.12543560E+04  d E =-.114696E-01  mag=    40.0000
       N       E                     dE             d eps       ncg     rms          rms(c)
DAV:   1    -0.125436075308E+04   -0.46760E-02   -0.64296E-01 43176   0.107E+00    0.242E-01
DAV:   2    -0.125436228723E+04   -0.15342E-02   -0.20761E-02 57468   0.235E-01    0.256E-01
DAV:   3    -0.125436217274E+04    0.11449E-03   -0.17989E-03 57072   0.717E-02    0.130E-01
DAV:   4    -0.125436211332E+04    0.59420E-04   -0.37243E-04 40824   0.429E-02
  54 F= -.12543621E+04 E0= -.12543621E+04  d E =-.609061E-02  mag=    40.0000
       N       E                     dE             d eps       ncg     rms          rms(c)
DAV:   1    -0.125436783908E+04   -0.56663E-02   -0.14562E+00 43344   0.159E+00    0.284E-01
DAV:   2    -0.125437168363E+04   -0.38446E-02   -0.38134E-02 51912   0.270E-01    0.159E-01
DAV:   3    -0.125437175960E+04   -0.75966E-04   -0.15294E-03 58476   0.518E-02    0.912E-02
DAV:   4    -0.125437167060E+04    0.89001E-04   -0.19178E-04 32652   0.285E-02
  55 F= -.12543717E+04 E0= -.12543717E+04  d E =-.955727E-02  mag=    40.0000
       N       E                     dE             d eps       ncg     rms          rms(c)
DAV:   1    -0.125436734396E+04    0.44156E-02   -0.35329E-01 43128   0.815E-01    0.333E-01
DAV:   2    -0.125436780938E+04   -0.46542E-03   -0.20647E-02 59928   0.266E-01    0.389E-01
DAV:   3    -0.125436744574E+04    0.36364E-03   -0.25875E-03 57660   0.889E-02    0.218E-01
DAV:   4    -0.125436734401E+04    0.10173E-03   -0.89277E-04 53148   0.550E-02    0.155E-01
DAV:   5    -0.125436729833E+04    0.45687E-04   -0.18566E-04 32904   0.364E-02
  56 F= -.12543673E+04 E0= -.12543673E+04  d E =0.437227E-02  mag=    40.0000
       N       E                     dE             d eps       ncg     rms          rms(c)
DAV:   1    -0.125437249325E+04   -0.51492E-02   -0.45421E+00 43296   0.279E+00    0.558E-01
DAV:   2    -0.125438499638E+04   -0.12503E-01   -0.12738E-01 54000   0.532E-01    0.446E-01
DAV:   3    -0.125438520353E+04   -0.20715E-03   -0.83547E-03 61956   0.151E-01    0.228E-01
DAV:   4    -0.125438495434E+04    0.24919E-03   -0.90864E-04 54204   0.507E-02    0.158E-01
DAV:   5    -0.125438479183E+04    0.16251E-03   -0.72244E-04 48840   0.493E-02    0.649E-02
DAV:   6    -0.125438479946E+04   -0.76298E-05   -0.30371E-04 36408   0.309E-02
  57 F= -.12543848E+04 E0= -.12543848E+04  d E =-.175011E-01  mag=    40.0000
       N       E                     dE             d eps       ncg     rms          rms(c)
DAV:   1    -0.125439057751E+04   -0.57857E-02   -0.15265E+00 43308   0.162E+00    0.279E-01
DAV:   2    -0.125439469871E+04   -0.41212E-02   -0.41273E-02 52512   0.282E-01    0.162E-01
DAV:   3    -0.125439475184E+04   -0.53135E-04   -0.15782E-03 59664   0.550E-02    0.911E-02
DAV:   4    -0.125439466773E+04    0.84113E-04   -0.18064E-04 33672   0.302E-02
  58 F= -.12543947E+04 E0= -.12543947E+04  d E =-.986827E-02  mag=    40.0000
       N       E                     dE             d eps       ncg     rms          rms(c)
DAV:   1    -0.125439583412E+04   -0.10823E-02   -0.60653E-02 43296   0.337E-01    0.139E-01
DAV:   2    -0.125439590106E+04   -0.66936E-04   -0.32768E-03 57900   0.117E-01    0.168E-01
DAV:   3    -0.125439586207E+04    0.38987E-04   -0.58920E-04 46872   0.413E-02
  59 F= -.12543959E+04 E0= -.12543959E+04  d E =-.119434E-02  mag=    40.0000
       N       E                     dE             d eps       ncg     rms          rms(c)
DAV:   1    -0.125439686831E+04   -0.96725E-03   -0.42305E-02 43704   0.295E-01    0.150E-01
DAV:   2    -0.125439689591E+04   -0.27603E-04   -0.50957E-03 61476   0.136E-01    0.182E-01
DAV:   3    -0.125439673283E+04    0.16308E-03   -0.68384E-04 48660   0.483E-02    0.874E-02
DAV:   4    -0.125439671839E+04    0.14440E-04   -0.35387E-04 39420   0.294E-02
  60 F= -.12543967E+04 E0= -.12543967E+04  d E =-.856320E-03  mag=    40.0000
       N       E                     dE             d eps       ncg     rms          rms(c)
DAV:   1    -0.125440227803E+04   -0.55452E-02   -0.32918E+00 43296   0.237E+00    0.450E-01
DAV:   2    -0.125441122702E+04   -0.89490E-02   -0.88887E-02 53040   0.423E-01    0.305E-01
DAV:   3    -0.125441146782E+04   -0.24081E-03   -0.53519E-03 63780   0.106E-01    0.171E-01
DAV:   4    -0.125441124328E+04    0.22454E-03   -0.79101E-04 53040   0.476E-02    0.121E-01
DAV:   5    -0.125441116837E+04    0.74915E-04   -0.66949E-04 47268   0.408E-02
  61 F= -.12544112E+04 E0= -.12544112E+04  d E =-.144500E-01  mag=    40.0000
       N       E                     dE             d eps       ncg     rms          rms(c)
DAV:   1    -0.125441667294E+04   -0.54297E-02   -0.10401E+00 43176   0.135E+00    0.261E-01
DAV:   2    -0.125441953397E+04   -0.28610E-02   -0.30511E-02 54744   0.257E-01    0.238E-01
DAV:   3    -0.125441948357E+04    0.50402E-04   -0.16100E-03 60108   0.632E-02    0.128E-01
DAV:   4    -0.125441939368E+04    0.89891E-04   -0.51915E-04 48060   0.454E-02
  62 F= -.12544194E+04 E0= -.12544194E+04  d E =-.822531E-02  mag=    40.0000
       N       E                     dE             d eps       ncg     rms          rms(c)
DAV:   1    -0.125442513833E+04   -0.56548E-02   -0.10676E+00 43020   0.135E+00    0.265E-01
DAV:   2    -0.125442779460E+04   -0.26563E-02   -0.29650E-02 54708   0.250E-01    0.191E-01
DAV:   3    -0.125442780753E+04   -0.12935E-04   -0.18112E-03 60924   0.671E-02    0.101E-01
DAV:   4    -0.125442772905E+04    0.78476E-04   -0.21688E-04 33432   0.303E-02
  63 F= -.12544277E+04 E0= -.12544277E+04  d E =-.833537E-02  mag=    40.0000
       N       E                     dE             d eps       ncg     rms          rms(c)
DAV:   1    -0.125443351325E+04   -0.57057E-02   -0.19748E+00 43296   0.185E+00    0.362E-01
DAV:   2    -0.125443888095E+04   -0.53677E-02   -0.58239E-02 55176   0.361E-01    0.354E-01
DAV:   3    -0.125443881743E+04    0.63524E-04   -0.39516E-03 61728   0.972E-02    0.198E-01
DAV:   4    -0.125443864993E+04    0.16750E-03   -0.11923E-03 57804   0.577E-02    0.154E-01
DAV:   5    -0.125443861573E+04    0.34198E-04   -0.54032E-04 48516   0.370E-02
  64 F= -.12544386E+04 E0= -.12544386E+04  d E =-.108867E-01  mag=    40.0000
       N       E                     dE             d eps       ncg     rms          rms(c)
DAV:   1    -0.125444292376E+04   -0.42738E-02   -0.42788E-01 43032   0.866E-01    0.192E-01
DAV:   2    -0.125444413928E+04   -0.12155E-02   -0.14982E-02 55584   0.191E-01    0.240E-01
DAV:   3    -0.125444404136E+04    0.97917E-04   -0.89058E-04 53100   0.503E-02
  65 F= -.12544440E+04 E0= -.12544440E+04  d E =-.542563E-02  mag=    40.0000
       N       E                     dE             d eps       ncg     rms          rms(c)
DAV:   1    -0.125445012353E+04   -0.59843E-02   -0.16918E+00 43296   0.170E+00    0.318E-01
DAV:   2    -0.125445467229E+04   -0.45488E-02   -0.44333E-02 53088   0.290E-01    0.181E-01
DAV:   3    -0.125445476021E+04   -0.87919E-04   -0.21302E-03 61308   0.620E-02    0.108E-01
DAV:   4    -0.125445465405E+04    0.10616E-03   -0.22061E-04 36612   0.295E-02    0.647E-02
DAV:   5    -0.125445463110E+04    0.22957E-04   -0.32004E-04 40104   0.300E-02
  66 F= -.12544546E+04 E0= -.12544546E+04  d E =-.105897E-01  mag=    40.0000
       N       E                     dE             d eps       ncg     rms          rms(c)
DAV:   1    -0.125446086313E+04   -0.62091E-02   -0.19578E+00 43152   0.183E+00    0.356E-01
DAV:   2    -0.125446613824E+04   -0.52751E-02   -0.55739E-02 53796   0.343E-01    0.289E-01
DAV:   3    -0.125446615602E+04   -0.17787E-04   -0.34262E-03 62052   0.870E-02    0.152E-01
DAV:   4    -0.125446601280E+04    0.14322E-03   -0.74771E-04 50688   0.491E-02    0.115E-01
DAV:   5    -0.125446597955E+04    0.33258E-04   -0.44257E-04 45408   0.367E-02
  67 F= -.12544660E+04 E0= -.12544660E+04  d E =-.113485E-01  mag=    40.0000
       N       E                     dE             d eps       ncg     rms          rms(c)
DAV:   1    -0.125447157392E+04   -0.55611E-02   -0.85981E-01 43320   0.122E+00    0.242E-01
DAV:   2    -0.125447394456E+04   -0.23706E-02   -0.25994E-02 55200   0.243E-01    0.224E-01
DAV:   3    -0.125447390290E+04    0.41655E-04   -0.17667E-03 59472   0.683E-02    0.113E-01
DAV:   4    -0.125447383912E+04    0.63781E-04   -0.31433E-04 38268   0.347E-02
  68 F= -.12544738E+04 E0= -.12544738E+04  d E =-.785957E-02  mag=    40.0000
       N       E                     dE             d eps       ncg     rms          rms(c)
DAV:   1    -0.125448018903E+04   -0.62861E-02   -0.27564E+00 43296   0.217E+00    0.375E-01
DAV:   2    -0.125448753686E+04   -0.73478E-02   -0.72294E-02 51960   0.365E-01    0.204E-01
DAV:   3    -0.125448770836E+04   -0.17150E-03   -0.30210E-03 61956   0.700E-02    0.121E-01
DAV:   4    -0.125448757117E+04    0.13719E-03   -0.31316E-04 40476   0.319E-02    0.768E-02
DAV:   5    -0.125448751917E+04    0.52002E-04   -0.34403E-04 39756   0.341E-02
  69 F= -.12544875E+04 E0= -.12544875E+04  d E =-.136800E-01  mag=    40.0000
       N       E                     dE             d eps       ncg     rms          rms(c)
DAV:   1    -0.125449278550E+04   -0.52143E-02   -0.76616E-01 43152   0.115E+00    0.232E-01
DAV:   2    -0.125449482203E+04   -0.20365E-02   -0.22300E-02 54816   0.222E-01    0.206E-01
DAV:   3    -0.125449481664E+04    0.53846E-05   -0.15950E-03 60372   0.594E-02    0.112E-01
DAV:   4    -0.125449475385E+04    0.62795E-04   -0.41100E-04 43428   0.374E-02
  70 F= -.12544948E+04 E0= -.12544948E+04  d E =-.723468E-02  mag=    40.0000
       N       E                     dE             d eps       ncg     rms          rms(c)
DAV:   1    -0.125450134116E+04   -0.65245E-02   -0.17919E+00 43296   0.175E+00    0.320E-01
DAV:   2    -0.125450609015E+04   -0.47490E-02   -0.49225E-02 53580   0.314E-01    0.222E-01
DAV:   3    -0.125450616566E+04   -0.75514E-04   -0.27824E-03 62256   0.788E-02    0.110E-01
DAV:   4    -0.125450606685E+04    0.98817E-04   -0.28438E-04 38700   0.328E-02
  71 F= -.12545061E+04 E0= -.12545061E+04  d E =-.113130E-01  mag=    40.0000
       N       E                     dE             d eps       ncg     rms          rms(c)
DAV:   1    -0.125451228626E+04   -0.61206E-02   -0.18988E+00 43296   0.181E+00    0.317E-01
DAV:   2    -0.125451725668E+04   -0.49704E-02   -0.50049E-02 53640   0.313E-01    0.207E-01
DAV:   3    -0.125451735464E+04   -0.97965E-04   -0.25275E-03 61224   0.677E-02    0.116E-01
DAV:   4    -0.125451723261E+04    0.12203E-03   -0.42297E-04 44904   0.392E-02    0.794E-02
DAV:   5    -0.125451721426E+04    0.18350E-04   -0.37507E-04 43896   0.349E-02
  72 F= -.12545172E+04 E0= -.12545172E+04  d E =-.111474E-01  mag=    40.0000
       N       E                     dE             d eps       ncg     rms          rms(c)
DAV:   1    -0.125452277147E+04   -0.55389E-02   -0.78243E-01 43032   0.116E+00    0.245E-01
DAV:   2    -0.125452482702E+04   -0.20556E-02   -0.23840E-02 55692   0.235E-01    0.231E-01
DAV:   3    -0.125452478544E+04    0.41586E-04   -0.17626E-03 60084   0.659E-02    0.120E-01
