       N       E                     dE             d eps       ncg     rms          rms(c)
DAV:   1     0.110771049535E+05    0.11077E+05   -0.39376E+05 43020   0.125E+03
DAV:   2     0.103484937825E+04   -0.10042E+05   -0.92458E+04 44340   0.350E+02
DAV:   3    -0.142402184030E+04   -0.24589E+04   -0.23781E+04 48432   0.180E+02
DAV:   4    -0.164881982809E+04   -0.22480E+03   -0.22120E+03 64968   0.605E+01
DAV:   5    -0.165750790877E+04   -0.86881E+01   -0.85651E+01 67548   0.138E+01
DAV:   6    -0.165790814143E+04   -0.40023E+00   -0.39642E+00 68052   0.252E+00
DAV:   7    -0.165793260010E+04   -0.24459E-01   -0.24340E-01 68364   0.628E-01
DAV:   8    -0.165793438455E+04   -0.17845E-02   -0.17801E-02 63432   0.144E-01
DAV:   9    -0.165793452793E+04   -0.14338E-03   -0.14315E-03 44412   0.422E-02
DAV:  10    -0.165793454056E+04   -0.12623E-04   -0.12588E-04 36264   0.158E-02
DAV:  11    -0.165793454300E+04   -0.24461E-05   -0.24315E-05 33732   0.994E-03
DAV:  12    -0.165793454427E+04   -0.12707E-05   -0.12631E-05 32604   0.715E-03    0.162E+02
DAV:  13    -0.122645137941E+04    0.43148E+03   -0.25317E+03 64092   0.829E+01    0.112E+02
DAV:  14    -0.130315766006E+04   -0.76706E+02   -0.11767E+03 71400   0.867E+01    0.144E+02
DAV:  15    -0.129812935942E+04    0.50283E+01   -0.71333E+02 69492   0.758E+01    0.112E+02
DAV:  16    -0.124360840743E+04    0.54521E+02   -0.21367E+02 65808   0.554E+01    0.591E+01
DAV:  17    -0.124236762688E+04    0.12408E+01   -0.98465E+01 66276   0.241E+01    0.345E+01
DAV:  18    -0.124801584845E+04   -0.56482E+01   -0.61278E+01 68760   0.267E+01    0.393E+01
DAV:  19    -0.125389258993E+04   -0.58767E+01   -0.46732E+01 66444   0.129E+01    0.518E+01
DAV:  20    -0.124966711062E+04    0.42255E+01   -0.92704E+01 67032   0.134E+01    0.262E+01
DAV:  21    -0.125329382256E+04   -0.36267E+01   -0.15859E+01 63960   0.723E+00    0.302E+01
DAV:  22    -0.125280383023E+04    0.48999E+00   -0.23462E+01 63624   0.887E+00    0.249E+01
DAV:  23    -0.125076855183E+04    0.20353E+01   -0.22861E+01 64536   0.102E+01    0.215E+01
DAV:  24    -0.124837092969E+04    0.23976E+01   -0.59948E+00 70884   0.889E+00    0.225E+01
DAV:  25    -0.124989130770E+04   -0.15204E+01   -0.12872E+00 64188   0.366E+00    0.214E+01
DAV:  26    -0.125110747890E+04   -0.12162E+01   -0.10104E+00 70404   0.327E+00    0.197E+01
DAV:  27    -0.125258408839E+04   -0.14766E+01   -0.58371E-01 67512   0.329E+00    0.179E+01
DAV:  28    -0.125359802913E+04   -0.10139E+01   -0.61331E-01 67824   0.443E+00    0.140E+01
DAV:  29    -0.125309254902E+04    0.50548E+00   -0.15085E+00 62976   0.298E+00    0.111E+01
DAV:  30    -0.125277675112E+04    0.31580E+00   -0.53083E-01 62556   0.126E+00    0.100E+01
DAV:  31    -0.125228992834E+04    0.48682E+00   -0.87942E-02 66852   0.134E+00    0.936E+00
DAV:  32    -0.125099534263E+04    0.12946E+01   -0.59551E-01 70380   0.311E+00    0.744E+00
DAV:  33    -0.125036915025E+04    0.62619E+00   -0.10135E+00 66660   0.241E+00    0.592E+00
DAV:  34    -0.125031745536E+04    0.51695E-01   -0.60024E-01 58020   0.101E+00    0.534E+00
DAV:  35    -0.125033727965E+04   -0.19824E-01   -0.38388E-02 61296   0.463E-01    0.541E+00
DAV:  36    -0.125023711097E+04    0.10017E+00   -0.36670E-02 62352   0.429E-01    0.514E+00
DAV:  37    -0.125005629344E+04    0.18082E+00   -0.54915E-02 67032   0.780E-01    0.471E+00
DAV:  38    -0.124968834199E+04    0.36795E+00   -0.18753E-01 67656   0.184E+00    0.397E+00
DAV:  39    -0.124952516591E+04    0.16318E+00   -0.27854E-01 70020   0.135E+00    0.329E+00
DAV:  40    -0.124946277611E+04    0.62390E-01   -0.27033E-01 62556   0.947E-01    0.296E+00
DAV:  41    -0.124933831513E+04    0.12446E+00   -0.10719E-01 77808   0.138E+00    0.209E+00
DAV:  42    -0.124930640972E+04    0.31905E-01   -0.20582E-01 69900   0.111E+00    0.102E+00
DAV:  43    -0.124931306670E+04   -0.66570E-02   -0.96305E-02 63660   0.634E-01    0.648E-01
DAV:  44    -0.124931628329E+04   -0.32166E-02   -0.31920E-02 56772   0.293E-01    0.741E-01
DAV:  45    -0.124931669227E+04   -0.40897E-03   -0.39476E-03 64416   0.221E-01    0.534E-01
DAV:  46    -0.124931934167E+04   -0.26494E-02   -0.74855E-03 68880   0.282E-01    0.530E-01
DAV:  47    -0.124931883789E+04    0.50378E-03   -0.72265E-03 63408   0.168E-01    0.394E-01
DAV:  48    -0.124931901705E+04   -0.17917E-03   -0.22270E-03 62772   0.755E-02    0.334E-01
DAV:  49    -0.124931914144E+04   -0.12439E-03   -0.26598E-03 70296   0.146E-01    0.322E-01
DAV:  50    -0.124932116647E+04   -0.20250E-02   -0.45804E-03 69204   0.353E-01    0.393E-01
DAV:  51    -0.124932120739E+04   -0.40921E-04   -0.57293E-03 62760   0.122E-01    0.351E-01
DAV:  52    -0.124932205664E+04   -0.84925E-03   -0.11109E-03 61308   0.831E-02    0.329E-01
DAV:  53    -0.124932403115E+04   -0.19745E-02   -0.16157E-03 68028   0.169E-01    0.347E-01
DAV:  54    -0.124932293630E+04    0.10949E-02   -0.19419E-03 63660   0.151E-01    0.240E-01
DAV:  55    -0.124932271544E+04    0.22086E-03   -0.92758E-04 58956   0.861E-02    0.196E-01
DAV:  56    -0.124932254838E+04    0.16706E-03   -0.91422E-04 61680   0.767E-02    0.199E-01
DAV:  57    -0.124932218238E+04    0.36600E-03   -0.17480E-04 37008   0.790E-02    0.164E-01
DAV:  58    -0.124932168268E+04    0.49970E-03   -0.88867E-04 51696   0.104E-01    0.110E-01
DAV:  59    -0.124932150367E+04    0.17901E-03   -0.96457E-04 58428   0.814E-02    0.475E-02
DAV:  60    -0.124932154107E+04   -0.37408E-04   -0.61942E-04 50808   0.405E-02
   1 F= -.12493215E+04 E0= -.12493211E+04  d E =-.124932E+04  mag=    39.9833
       N       E                     dE             d eps       ncg     rms          rms(c)
DAV:   1    -0.125009330745E+04   -0.77180E+00   -0.27321E+03 43008   0.733E+01    0.258E+01
DAV:   2    -0.125532783173E+04   -0.52345E+01   -0.17488E+02 64224   0.300E+01    0.306E+01
DAV:   3    -0.125422762194E+04    0.11002E+01   -0.27052E+01 60480   0.835E+00    0.205E+01
DAV:   4    -0.125214904184E+04    0.20786E+01   -0.66056E+00 65904   0.465E+00    0.149E+01
DAV:   5    -0.125198605214E+04    0.16299E+00   -0.56074E+00 61860   0.423E+00    0.712E+00
DAV:   6    -0.125171590808E+04    0.27014E+00   -0.25748E+00 65292   0.345E+00    0.421E+00
DAV:   7    -0.125165145449E+04    0.64454E-01   -0.13859E+00 60780   0.201E+00    0.307E+00
DAV:   8    -0.125164455511E+04    0.68994E-02   -0.21489E-01 62868   0.972E-01    0.149E+00
DAV:   9    -0.125164347119E+04    0.10839E-02   -0.49871E-02 66072   0.483E-01    0.117E+00
DAV:  10    -0.125164205057E+04    0.14206E-02   -0.21767E-02 58392   0.265E-01    0.792E-01
DAV:  11    -0.125163597699E+04    0.60736E-02   -0.24312E-02 63840   0.274E-01    0.390E-01
DAV:  12    -0.125163566334E+04    0.31364E-03   -0.13323E-02 61308   0.159E-01    0.168E-01
DAV:  13    -0.125163570648E+04   -0.43139E-04   -0.15340E-03 62604   0.742E-02    0.140E-01
DAV:  14    -0.125163573624E+04   -0.29761E-04   -0.46084E-04 45624   0.417E-02
   2 F= -.12516357E+04 E0= -.12516357E+04  d E =-.231420E+01  mag=    39.9901
       N       E                     dE             d eps       ncg     rms          rms(c)
DAV:   1    -0.125771667554E+04   -0.60810E+01   -0.39910E+02 43344   0.287E+01    0.167E+01
DAV:   2    -0.125596273354E+04    0.17539E+01   -0.32087E+01 59820   0.127E+01    0.200E+01
DAV:   3    -0.125551841535E+04    0.44432E+00   -0.84513E+00 62388   0.446E+00    0.126E+01
DAV:   4    -0.125530905896E+04    0.20936E+00   -0.31274E+00 63468   0.303E+00    0.103E+01
DAV:   5    -0.125513175840E+04    0.17730E+00   -0.80610E-01 58164   0.226E+00    0.471E+00
DAV:   6    -0.125504613365E+04    0.85625E-01   -0.94386E-01 63996   0.162E+00    0.185E+00
DAV:   7    -0.125504299231E+04    0.31413E-02   -0.27111E-01 62820   0.917E-01    0.145E+00
DAV:   8    -0.125503716420E+04    0.58281E-02   -0.28346E-02 61560   0.543E-01    0.530E-01
DAV:   9    -0.125503568143E+04    0.14828E-02   -0.26325E-02 62292   0.276E-01    0.307E-01
DAV:  10    -0.125503557164E+04    0.10979E-03   -0.74151E-03 60552   0.146E-01    0.159E-01
DAV:  11    -0.125503549291E+04    0.78737E-04   -0.27033E-03 63516   0.979E-02    0.156E-01
DAV:  12    -0.125503551464E+04   -0.21733E-04   -0.52120E-04 43620   0.439E-02
   3 F= -.12550355E+04 E0= -.12550355E+04  d E =-.339978E+01  mag=    39.9937
       N       E                     dE             d eps       ncg     rms          rms(c)
DAV:   1    -0.125512594712E+04   -0.90454E-01   -0.19174E+02 43008   0.192E+01    0.654E+00
DAV:   2    -0.125576062327E+04   -0.63468E+00   -0.10762E+01 59844   0.595E+00    0.874E+00
DAV:   3    -0.125564375406E+04    0.11687E+00   -0.11011E+00 59124   0.183E+00    0.603E+00
DAV:   4    -0.125554423589E+04    0.99518E-01   -0.35935E-01 56796   0.848E-01    0.466E+00
DAV:   5    -0.125551695210E+04    0.27284E-01   -0.36347E-01 56232   0.900E-01    0.215E+00
DAV:   6    -0.125549123530E+04    0.25717E-01   -0.20993E-01 64968   0.845E-01    0.132E+00
DAV:   7    -0.125548772220E+04    0.35131E-02   -0.11756E-01 56592   0.462E-01    0.738E-01
DAV:   8    -0.125548783949E+04   -0.11729E-03   -0.97958E-03 59676   0.185E-01    0.434E-01
DAV:   9    -0.125548780231E+04    0.37174E-04   -0.64964E-03 62340   0.129E-01    0.284E-01
DAV:  10    -0.125548738983E+04    0.41249E-03   -0.18303E-03 62364   0.761E-02    0.168E-01
DAV:  11    -0.125548720208E+04    0.18774E-03   -0.12759E-03 60612   0.555E-02    0.817E-02
DAV:  12    -0.125548717555E+04    0.26533E-04   -0.20969E-04 27048   0.258E-02
   4 F= -.12554872E+04 E0= -.12554872E+04  d E =-.451661E+00  mag=    39.9959
       N       E                     dE             d eps       ncg     rms          rms(c)
DAV:   1    -0.125574487669E+04   -0.25767E+00   -0.82834E+01 43008   0.127E+01    0.402E+00
DAV:   2    -0.125587007849E+04   -0.12520E+00   -0.42297E+00 61800   0.396E+00    0.514E+00
DAV:   3    -0.125584483840E+04    0.25240E-01   -0.58961E-01 60408   0.125E+00    0.349E+00
DAV:   4    -0.125580072695E+04    0.44111E-01   -0.17090E-01 65208   0.662E-01    0.282E+00
DAV:   5    -0.125578816581E+04    0.12561E-01   -0.13547E-01 55068   0.568E-01    0.149E+00
DAV:   6    -0.125577589013E+04    0.12276E-01   -0.81450E-02 65676   0.563E-01    0.757E-01
DAV:   7    -0.125577534871E+04    0.54142E-03   -0.58601E-02 58920   0.356E-01    0.548E-01
DAV:   8    -0.125577534014E+04    0.85657E-05   -0.59048E-03 61620   0.156E-01    0.219E-01
DAV:   9    -0.125577539218E+04   -0.52034E-04   -0.27578E-03 63300   0.994E-02    0.152E-01
DAV:  10    -0.125577534425E+04    0.47930E-04   -0.10625E-03 55488   0.496E-02    0.116E-01
DAV:  11    -0.125577521334E+04    0.13091E-03   -0.36332E-04 37668   0.340E-02    0.793E-02
DAV:  12    -0.125577519214E+04    0.21204E-04   -0.22622E-04 27144   0.243E-02
   5 F= -.12557752E+04 E0= -.12557752E+04  d E =-.288017E+00  mag=    39.9974
       N       E                     dE             d eps       ncg     rms          rms(c)
DAV:   1    -0.125593615205E+04   -0.16094E+00   -0.97375E+00 43044   0.444E+00    0.210E+00
DAV:   2    -0.125591141412E+04    0.24738E-01   -0.58790E-01 62316   0.145E+00    0.197E+00
DAV:   3    -0.125590421207E+04    0.72021E-02   -0.12295E-01 61764   0.605E-01    0.996E-01
DAV:   4    -0.125589956071E+04    0.46514E-02   -0.29492E-02 64848   0.301E-01    0.789E-01
DAV:   5    -0.125589839932E+04    0.11614E-02   -0.82269E-03 57672   0.168E-01    0.398E-01
DAV:   6    -0.125589747207E+04    0.92725E-03   -0.44556E-03 65112   0.131E-01    0.143E-01
DAV:   7    -0.125589759838E+04   -0.12631E-03   -0.21790E-03 62316   0.799E-02    0.104E-01
DAV:   8    -0.125589758668E+04    0.11700E-04   -0.18338E-04 31248   0.348E-02
   6 F= -.12558976E+04 E0= -.12558976E+04  d E =-.122395E+00  mag=    39.9981
       N       E                     dE             d eps       ncg     rms          rms(c)
DAV:   1    -0.125592793802E+04   -0.30340E-01   -0.37514E+01 43008   0.861E+00    0.170E+00
DAV:   2    -0.125602911140E+04   -0.10117E+00   -0.11707E+00 55848   0.168E+00    0.149E+00
DAV:   3    -0.125602703692E+04    0.20745E-02   -0.59177E-02 58716   0.437E-01    0.762E-01
DAV:   4    -0.125602332391E+04    0.37130E-02   -0.11115E-02 61896   0.210E-01    0.586E-01
DAV:   5    -0.125602219474E+04    0.11292E-02   -0.97540E-03 62280   0.174E-01    0.261E-01
DAV:   6    -0.125602211846E+04    0.76276E-04   -0.21959E-03 61476   0.886E-02    0.161E-01
DAV:   7    -0.125602210875E+04    0.97127E-05   -0.10939E-03 58140   0.520E-02    0.792E-02
DAV:   8    -0.125602210627E+04    0.24775E-05   -0.10269E-04 27600   0.235E-02
   7 F= -.12560221E+04 E0= -.12560221E+04  d E =-.124520E+00  mag=    39.9986
       N       E                     dE             d eps       ncg     rms          rms(c)
DAV:   1    -0.125607349975E+04   -0.51391E-01   -0.29526E+00 44640   0.255E+00    0.153E+00
DAV:   2    -0.125605255062E+04    0.20949E-01   -0.26833E-01 63084   0.958E-01    0.144E+00
DAV:   3    -0.125604517248E+04    0.73781E-02   -0.49308E-02 62232   0.400E-01    0.655E-01
DAV:   4    -0.125604423786E+04    0.93462E-03   -0.70804E-03 62976   0.151E-01    0.423E-01
DAV:   5    -0.125604386775E+04    0.37011E-03   -0.26982E-03 67236   0.124E-01    0.249E-01
DAV:   6    -0.125604376683E+04    0.10092E-03   -0.10889E-03 59016   0.572E-02    0.859E-02
DAV:   7    -0.125604373939E+04    0.27441E-04   -0.33935E-04 38112   0.337E-02
   8 F= -.12560437E+04 E0= -.12560437E+04  d E =-.216331E-01  mag=    39.9989
       N       E                     dE             d eps       ncg     rms          rms(c)
DAV:   1    -0.125604595182E+04   -0.21850E-02   -0.29827E+01 43032   0.769E+00    0.136E+00
DAV:   2    -0.125612691813E+04   -0.80966E-01   -0.95795E-01 56496   0.165E+00    0.162E+00
DAV:   3    -0.125612400898E+04    0.29092E-02   -0.65604E-02 58524   0.454E-01    0.923E-01
DAV:   4    -0.125612056895E+04    0.34400E-02   -0.11050E-02 63144   0.201E-01    0.755E-01
DAV:   5    -0.125611876146E+04    0.18075E-02   -0.71841E-03 58572   0.206E-01    0.410E-01
DAV:   6    -0.125611869520E+04    0.66259E-04   -0.84702E-03 62076   0.153E-01    0.159E-01
DAV:   7    -0.125611866586E+04    0.29338E-04   -0.19634E-03 54204   0.690E-02    0.106E-01
DAV:   8    -0.125611864217E+04    0.23694E-04   -0.33808E-04 36864   0.390E-02
   9 F= -.12561186E+04 E0= -.12561186E+04  d E =-.749028E-01  mag=    39.9992
       N       E                     dE             d eps       ncg     rms          rms(c)
DAV:   1    -0.125613923196E+04   -0.20566E-01   -0.24192E+00 43056   0.212E+00    0.957E-01
DAV:   2    -0.125613498660E+04    0.42454E-02   -0.14638E-01 60060   0.788E-01    0.112E+00
DAV:   3    -0.125613412657E+04    0.86004E-03   -0.34926E-02 59280   0.280E-01    0.769E-01
DAV:   4    -0.125613190423E+04    0.22223E-02   -0.13054E-02 63672   0.182E-01    0.613E-01
DAV:   5    -0.125613143650E+04    0.46773E-03   -0.43824E-03 57264   0.143E-01    0.323E-01
DAV:   6    -0.125613104026E+04    0.39624E-03   -0.47036E-03 64152   0.124E-01    0.147E-01
DAV:   7    -0.125613099839E+04    0.41869E-04   -0.25479E-03 62412   0.836E-02    0.120E-01
DAV:   8    -0.125613098837E+04    0.10019E-04   -0.18875E-04 31344   0.409E-02
  10 F= -.12561310E+04 E0= -.12561310E+04  d E =-.123462E-01  mag=    39.9994
       N       E                     dE             d eps       ncg     rms          rms(c)
DAV:   1    -0.125615210586E+04   -0.21107E-01   -0.20212E+00 43080   0.201E+00    0.625E-01
DAV:   2    -0.125615301282E+04   -0.90695E-03   -0.81957E-02 58140   0.514E-01    0.612E-01
DAV:   3    -0.125615248587E+04    0.52694E-03   -0.12392E-02 62340   0.190E-01    0.346E-01
DAV:   4    -0.125615191402E+04    0.57185E-03   -0.33447E-03 63492   0.106E-01    0.261E-01
DAV:   5    -0.125615177081E+04    0.14321E-03   -0.10161E-03 52092   0.681E-02    0.134E-01
DAV:   6    -0.125615172470E+04    0.46115E-04   -0.93096E-04 57960   0.513E-02
  11 F= -.12561517E+04 E0= -.12561517E+04  d E =-.207363E-01  mag=    39.9995
       N       E                     dE             d eps       ncg     rms          rms(c)
DAV:   1    -0.125615913461E+04   -0.73638E-02   -0.13912E+01 43008   0.522E+00    0.754E-01
DAV:   2    -0.125619623325E+04   -0.37099E-01   -0.39069E-01 51660   0.919E-01    0.581E-01
DAV:   3    -0.125619621748E+04    0.15772E-04   -0.16853E-02 61260   0.204E-01    0.334E-01
DAV:   4    -0.125619517590E+04    0.10416E-02   -0.32721E-03 63024   0.124E-01    0.253E-01
DAV:   5    -0.125619488198E+04    0.29392E-03   -0.33840E-03 60468   0.113E-01    0.117E-01
DAV:   6    -0.125619489189E+04   -0.99129E-05   -0.12969E-03 57252   0.672E-02    0.963E-02
DAV:   7    -0.125619487894E+04    0.12955E-04   -0.35831E-04 35844   0.287E-02
  12 F= -.12561949E+04 E0= -.12561949E+04  d E =-.431542E-01  mag=    39.9996
       N       E                     dE             d eps       ncg     rms          rms(c)
DAV:   1    -0.125619958754E+04   -0.46957E-02   -0.56448E-01 43176   0.102E+00    0.460E-01
DAV:   2    -0.125620039823E+04   -0.81069E-03   -0.35333E-02 58896   0.377E-01    0.562E-01
DAV:   3    -0.125620005373E+04    0.34451E-03   -0.70568E-03 56436   0.135E-01    0.396E-01
DAV:   4    -0.125619964069E+04    0.41304E-03   -0.25290E-03 57156   0.719E-02    0.291E-01
DAV:   5    -0.125619947895E+04    0.16174E-03   -0.77020E-04 51588   0.591E-02    0.135E-01
DAV:   6    -0.125619944783E+04    0.31119E-04   -0.44347E-04 47412   0.453E-02
  13 F= -.12561994E+04 E0= -.12561994E+04  d E =-.456889E-02  mag=    39.9997
       N       E                     dE             d eps       ncg     rms          rms(c)
DAV:   1    -0.125620879081E+04   -0.93119E-02   -0.51223E+00 43056   0.317E+00    0.551E-01
DAV:   2    -0.125622263275E+04   -0.13842E-01   -0.16349E-01 54444   0.678E-01    0.699E-01
DAV:   3    -0.125622235634E+04    0.27641E-03   -0.12466E-02 58776   0.185E-01    0.442E-01
DAV:   4    -0.125622153758E+04    0.81876E-03   -0.28038E-03 58560   0.958E-02    0.359E-01
DAV:   5    -0.125622120521E+04    0.33237E-03   -0.21047E-03 59292   0.115E-01    0.207E-01
DAV:   6    -0.125622118126E+04    0.23945E-04   -0.24318E-03 60948   0.786E-02    0.955E-02
DAV:   7    -0.125622112824E+04    0.53026E-04   -0.73487E-04 45924   0.461E-02
  14 F= -.12562211E+04 E0= -.12562211E+04  d E =-.216804E-01  mag=    39.9998
       N       E                     dE             d eps       ncg     rms          rms(c)
DAV:   1    -0.125623008730E+04   -0.89060E-02   -0.19805E+00 43032   0.196E+00    0.386E-01
DAV:   2    -0.125623522286E+04   -0.51356E-02   -0.67773E-02 57348   0.433E-01    0.497E-01
DAV:   3    -0.125623505712E+04    0.16574E-03   -0.62759E-03 60924   0.125E-01    0.346E-01
DAV:   4    -0.125623469553E+04    0.36159E-03   -0.18129E-03 59352   0.730E-02    0.294E-01
DAV:   5    -0.125623461004E+04    0.85489E-04   -0.14162E-03 59400   0.682E-02    0.171E-01
DAV:   6    -0.125623449019E+04    0.11985E-03   -0.85497E-04 56124   0.516E-02    0.100E-01
DAV:   7    -0.125623446565E+04    0.24538E-04   -0.46288E-04 40584   0.387E-02
  15 F= -.12562345E+04 E0= -.12562345E+04  d E =-.133374E-01  mag=    39.9998
       N       E                     dE             d eps       ncg     rms          rms(c)
DAV:   1    -0.125624036106E+04   -0.58709E-02   -0.64089E-01 43176   0.112E+00    0.280E-01
DAV:   2    -0.125624196737E+04   -0.16063E-02   -0.22594E-02 57096   0.266E-01    0.312E-01
DAV:   3    -0.125624192615E+04    0.41221E-04   -0.28976E-03 61380   0.884E-02    0.188E-01
DAV:   4    -0.125624181474E+04    0.11141E-03   -0.60660E-04 49128   0.422E-02    0.142E-01
DAV:   5    -0.125624177590E+04    0.38844E-04   -0.27977E-04 34860   0.364E-02
  16 F= -.12562418E+04 E0= -.12562418E+04  d E =-.731024E-02  mag=    39.9999
       N       E                     dE             d eps       ncg     rms          rms(c)
DAV:   1    -0.125623214956E+04    0.96652E-02   -0.15799E+01 43008   0.556E+00    0.864E-01
DAV:   2    -0.125627452449E+04   -0.42375E-01   -0.43551E-01 48480   0.960E-01    0.517E-01
DAV:   3    -0.125627509287E+04   -0.56838E-03   -0.18573E-02 62016   0.198E-01    0.302E-01
DAV:   4    -0.125627396253E+04    0.11303E-02   -0.37274E-03 62580   0.128E-01    0.204E-01
DAV:   5    -0.125627371526E+04    0.24726E-03   -0.32231E-03 60420   0.106E-01    0.983E-02
DAV:   6    -0.125627369850E+04    0.16764E-04   -0.10293E-03 55296   0.616E-02    0.963E-02
DAV:   7    -0.125627368588E+04    0.12621E-04   -0.29478E-04 32676   0.268E-02
  17 F= -.12562737E+04 E0= -.12562737E+04  d E =-.319100E-01  mag=    39.9999
       N       E                     dE             d eps       ncg     rms          rms(c)
DAV:   1    -0.125625862378E+04    0.15075E-01   -0.21911E+00 43032   0.207E+00    0.395E-01
DAV:   2    -0.125626449661E+04   -0.58728E-02   -0.72110E-02 54192   0.452E-01    0.491E-01
DAV:   3    -0.125626438961E+04    0.10700E-03   -0.60164E-03 58212   0.124E-01    0.333E-01
DAV:   4    -0.125626391562E+04    0.47400E-03   -0.20095E-03 56832   0.762E-02    0.274E-01
DAV:   5    -0.125626376573E+04    0.14989E-03   -0.13497E-03 56268   0.779E-02    0.156E-01
DAV:   6    -0.125626371413E+04    0.51600E-04   -0.10766E-03 58956   0.559E-02    0.770E-02
DAV:   7    -0.125626368431E+04    0.29816E-04   -0.55562E-04 42024   0.378E-02
  18 F= -.12562637E+04 E0= -.12562637E+04  d E =0.100016E-01  mag=    39.9999
       N       E                     dE             d eps       ncg     rms          rms(c)
DAV:   1    -0.125626757185E+04   -0.38577E-02   -0.53942E+00 43032   0.325E+00    0.504E-01
DAV:   2    -0.125628245112E+04   -0.14879E-01   -0.15643E-01 52764   0.618E-01    0.502E-01
DAV:   3    -0.125628238302E+04    0.68103E-04   -0.86292E-03 59892   0.157E-01    0.280E-01
DAV:   4    -0.125628193129E+04    0.45174E-03   -0.13586E-03 57132   0.756E-02    0.224E-01
DAV:   5    -0.125628169010E+04    0.24119E-03   -0.13226E-03 57216   0.842E-02    0.110E-01
DAV:   6    -0.125628171151E+04   -0.21409E-04   -0.10750E-03 53496   0.517E-02    0.519E-02
DAV:   7    -0.125628169467E+04    0.16832E-04   -0.21804E-04 29148   0.270E-02
  19 F= -.12562817E+04 E0= -.12562817E+04  d E =-.180104E-01  mag=    39.9999
       N       E                     dE             d eps       ncg     rms          rms(c)
DAV:   1    -0.125628616799E+04   -0.44565E-02   -0.12167E+00 43056   0.154E+00    0.271E-01
DAV:   2    -0.125628924464E+04   -0.30766E-02   -0.36448E-02 52908   0.291E-01    0.232E-01
DAV:   3    -0.125628924037E+04    0.42691E-05   -0.24262E-03 61824   0.813E-02    0.140E-01
DAV:   4    -0.125628912088E+04    0.11949E-03   -0.56501E-04 48600   0.454E-02    0.111E-01
DAV:   5    -0.125628908992E+04    0.30955E-04   -0.40399E-04 40860   0.404E-02
  20 F= -.12562891E+04 E0= -.12562891E+04  d E =-.739525E-02  mag=    39.9999
       N       E                     dE             d eps       ncg     rms          rms(c)
DAV:   1    -0.125629330940E+04   -0.41885E-02   -0.66924E-01 43032   0.114E+00    0.292E-01
DAV:   2    -0.125629488931E+04   -0.15799E-02   -0.22342E-02 56964   0.247E-01    0.281E-01
DAV:   3    -0.125629479783E+04    0.91478E-04   -0.23703E-03 58716   0.840E-02    0.158E-01
DAV:   4    -0.125629470100E+04    0.96823E-04   -0.52291E-04 44484   0.392E-02
  21 F= -.12562947E+04 E0= -.12562947E+04  d E =-.561108E-02  mag=    40.0000
       N       E                     dE             d eps       ncg     rms          rms(c)
DAV:   1    -0.125629818609E+04   -0.33883E-02   -0.13179E+00 43032   0.160E+00    0.290E-01
DAV:   2    -0.125630182472E+04   -0.36386E-02   -0.42137E-02 54360   0.340E-01    0.335E-01
DAV:   3    -0.125630169238E+04    0.13234E-03   -0.29835E-03 57456   0.975E-02    0.189E-01
DAV:   4    -0.125630154691E+04    0.14548E-03   -0.53573E-04 46308   0.475E-02    0.160E-01
DAV:   5    -0.125630150334E+04    0.43571E-04   -0.46148E-04 45420   0.454E-02
  22 F= -.12563015E+04 E0= -.12563015E+04  d E =-.680233E-02  mag=    40.0000
       N       E                     dE             d eps       ncg     rms          rms(c)
DAV:   1    -0.125630503295E+04   -0.34860E-02   -0.51224E-01 43248   0.994E-01    0.199E-01
DAV:   2    -0.125630617845E+04   -0.11455E-02   -0.15827E-02 56508   0.205E-01    0.203E-01
DAV:   3    -0.125630613753E+04    0.40917E-04   -0.15669E-03 59484   0.651E-02    0.107E-01
DAV:   4    -0.125630606678E+04    0.70749E-04   -0.22083E-04 32268   0.344E-02
  23 F= -.12563061E+04 E0= -.12563061E+04  d E =-.456345E-02  mag=    40.0000
       N       E                     dE             d eps       ncg     rms          rms(c)
DAV:   1    -0.125630955721E+04   -0.34197E-02   -0.16846E+00 43128   0.181E+00    0.360E-01
DAV:   2    -0.125631373868E+04   -0.41815E-02   -0.48376E-02 52884   0.333E-01    0.278E-01
DAV:   3    -0.125631368345E+04    0.55233E-04   -0.30832E-03 59148   0.969E-02    0.154E-01
DAV:   4    -0.125631353861E+04    0.14484E-03   -0.49926E-04 44364   0.437E-02    0.106E-01
DAV:   5    -0.125631348334E+04    0.55267E-04   -0.28998E-04 31176   0.386E-02
  24 F= -.12563135E+04 E0= -.12563135E+04  d E =-.741656E-02  mag=    40.0000
       N       E                     dE             d eps       ncg     rms          rms(c)
DAV:   1    -0.125631591160E+04   -0.23730E-02   -0.47468E-01 43080   0.961E-01    0.194E-01
DAV:   2    -0.125631724223E+04   -0.13306E-02   -0.17082E-02 55524   0.219E-01    0.239E-01
DAV:   3    -0.125631715052E+04    0.91710E-04   -0.12126E-03 55212   0.627E-02    0.147E-01
DAV:   4    -0.125631707176E+04    0.78758E-04   -0.31162E-04 37584   0.334E-02
  25 F= -.12563171E+04 E0= -.12563171E+04  d E =-.358842E-02  mag=    40.0000
       N       E                     dE             d eps       ncg     rms          rms(c)
DAV:   1    -0.125632017100E+04   -0.30205E-02   -0.77060E-01 43200   0.122E+00    0.227E-01
DAV:   2    -0.125632199150E+04   -0.18205E-02   -0.21081E-02 50652   0.216E-01    0.141E-01
DAV:   3    -0.125632199139E+04    0.10683E-06   -0.13958E-03 57936   0.651E-02    0.728E-02
DAV:   4    -0.125632193214E+04    0.59250E-04   -0.13134E-04 27432   0.261E-02
  26 F= -.12563219E+04 E0= -.12563219E+04  d E =-.486038E-02  mag=    40.0000
       N       E                     dE             d eps       ncg     rms          rms(c)
DAV:   1    -0.125632290540E+04   -0.91400E-03   -0.29210E+00 43272   0.238E+00    0.389E-01
DAV:   2    -0.125633044412E+04   -0.75387E-02   -0.77817E-02 47964   0.408E-01    0.233E-01
DAV:   3    -0.125633055004E+04   -0.10592E-03   -0.35352E-03 63144   0.911E-02    0.158E-01
DAV:   4    -0.125633038164E+04    0.16841E-03   -0.35742E-04 39600   0.405E-02    0.996E-02
DAV:   5    -0.125633027437E+04    0.10726E-03   -0.61278E-04 46416   0.535E-02    0.470E-02
DAV:   6    -0.125633028574E+04   -0.11374E-04   -0.29975E-04 35496   0.305E-02
  27 F= -.12563303E+04 E0= -.12563303E+04  d E =-.835360E-02  mag=    40.0000
       N       E                     dE             d eps       ncg     rms          rms(c)
DAV:   1    -0.125632727462E+04    0.29997E-02   -0.50380E+00 43200   0.312E+00    0.523E-01
DAV:   2    -0.125634027822E+04   -0.13004E-01   -0.13793E-01 50820   0.556E-01    0.335E-01
DAV:   3    -0.125634062799E+04   -0.34977E-03   -0.85384E-03 62208   0.136E-01    0.210E-01
DAV:   4    -0.125634026573E+04    0.36226E-03   -0.11386E-03 57000   0.635E-02    0.137E-01
DAV:   5    -0.125634010177E+04    0.16396E-03   -0.10653E-03 57960   0.659E-02    0.716E-02
DAV:   6    -0.125634008603E+04    0.15746E-04   -0.25061E-04 31068   0.333E-02
  28 F= -.12563401E+04 E0= -.12563401E+04  d E =-.980028E-02  mag=    40.0000
       N       E                     dE             d eps       ncg     rms          rms(c)
DAV:   1    -0.125633822978E+04    0.18720E-02   -0.25544E-01 43128   0.695E-01    0.167E-01
DAV:   2    -0.125633884450E+04   -0.61472E-03   -0.10023E-02 56580   0.180E-01    0.238E-01
DAV:   3    -0.125633880162E+04    0.42882E-04   -0.10562E-03 54936   0.530E-02    0.165E-01
DAV:   4    -0.125633872210E+04    0.79520E-04   -0.22327E-04 34536   0.246E-02
  29 F= -.12563387E+04 E0= -.12563387E+04  d E =0.136393E-02  mag=    40.0000
       N       E                     dE             d eps       ncg     rms          rms(c)
DAV:   1    -0.125634012132E+04   -0.13197E-02   -0.50491E-01 43056   0.996E-01    0.174E-01
DAV:   2    -0.125634157519E+04   -0.14539E-02   -0.16522E-02 54180   0.208E-01    0.173E-01
DAV:   3    -0.125634152477E+04    0.50429E-04   -0.10482E-03 53736   0.596E-02    0.834E-02
DAV:   4    -0.125634147901E+04    0.45759E-04   -0.11866E-04 28464   0.279E-02
  30 F= -.12563415E+04 E0= -.12563415E+04  d E =-.275691E-02  mag=    40.0000
       N       E                     dE             d eps       ncg     rms          rms(c)
DAV:   1    -0.125634310907E+04   -0.15843E-02   -0.37590E-01 43476   0.852E-01    0.146E-01
DAV:   2    -0.125634397617E+04   -0.86711E-03   -0.10302E-02 53424   0.158E-01    0.128E-01
DAV:   3    -0.125634395491E+04    0.21263E-04   -0.68758E-04 50376   0.459E-02
  31 F= -.12563440E+04 E0= -.12563440E+04  d E =-.247590E-02  mag=    40.0000
       N       E                     dE             d eps       ncg     rms          rms(c)
DAV:   1    -0.125634503131E+04   -0.10551E-02   -0.16809E-01 43128   0.567E-01    0.126E-01
DAV:   2    -0.125634552306E+04   -0.49175E-03   -0.55655E-03 56460   0.121E-01    0.132E-01
DAV:   3    -0.125634548934E+04    0.33714E-04   -0.41940E-04 41712   0.374E-02
  32 F= -.12563455E+04 E0= -.12563455E+04  d E =-.153443E-02  mag=    40.0000
       N       E                     dE             d eps       ncg     rms          rms(c)
DAV:   1    -0.125633309393E+04    0.12429E-01   -0.90901E+00 43296   0.419E+00    0.794E-01
DAV:   2    -0.125635650373E+04   -0.23410E-01   -0.23915E-01 46740   0.715E-01    0.406E-01
DAV:   3    -0.125635708643E+04   -0.58270E-03   -0.12238E-02 62640   0.168E-01    0.255E-01
DAV:   4    -0.125635650449E+04    0.58194E-03   -0.15559E-03 60120   0.724E-02    0.152E-01
DAV:   5    -0.125635619032E+04    0.31417E-03   -0.11999E-03 57588   0.666E-02    0.713E-02
DAV:   6    -0.125635618211E+04    0.82112E-05   -0.36615E-04 38196   0.341E-02
  33 F= -.12563562E+04 E0= -.12563562E+04  d E =-.106928E-01  mag=    40.0000
       N       E                     dE             d eps       ncg     rms          rms(c)
DAV:   1    -0.125634952315E+04    0.66672E-02   -0.11905E+00 43056   0.151E+00    0.373E-01
DAV:   2    -0.125635270243E+04   -0.31793E-02   -0.32026E-02 53196   0.286E-01    0.250E-01
DAV:   3    -0.125635286806E+04   -0.16562E-03   -0.29237E-03 61860   0.969E-02    0.172E-01
DAV:   4    -0.125635276636E+04    0.10170E-03   -0.26318E-04 34872   0.287E-02    0.957E-02
DAV:   5    -0.125635267925E+04    0.87102E-04   -0.33106E-04 35208   0.319E-02
  34 F= -.12563527E+04 E0= -.12563527E+04  d E =0.350285E-02  mag=    40.0000
       N       E                     dE             d eps       ncg     rms          rms(c)
DAV:   1    -0.125635303226E+04   -0.26590E-03   -0.14240E+00 43392   0.166E+00    0.263E-01
DAV:   2    -0.125635679980E+04   -0.37675E-02   -0.38027E-02 46272   0.283E-01    0.141E-01
DAV:   3    -0.125635683911E+04   -0.39304E-04   -0.13978E-03 59136   0.555E-02    0.842E-02
DAV:   4    -0.125635675692E+04    0.82187E-04   -0.12793E-04 26832   0.263E-02
  35 F= -.12563568E+04 E0= -.12563568E+04  d E =-.407767E-02  mag=    40.0000
       N       E                     dE             d eps       ncg     rms          rms(c)
DAV:   1    -0.125635726481E+04   -0.42571E-03   -0.12631E+00 43248   0.156E+00    0.284E-01
DAV:   2    -0.125636029683E+04   -0.30320E-02   -0.32703E-02 46620   0.264E-01    0.146E-01
DAV:   3    -0.125636033538E+04   -0.38552E-04   -0.15805E-03 60660   0.600E-02    0.870E-02
DAV:   4    -0.125636023477E+04    0.10061E-03   -0.17551E-04 31368   0.313E-02    0.609E-02
DAV:   5    -0.125636020963E+04    0.25136E-04   -0.27904E-04 31752   0.305E-02
  36 F= -.12563602E+04 E0= -.12563602E+04  d E =-.345271E-02  mag=    40.0000
       N       E                     dE             d eps       ncg     rms          rms(c)
DAV:   1    -0.125629932188E+04    0.60913E-01   -0.27819E+01 43296   0.733E+00    0.133E+00
DAV:   2    -0.125637334463E+04   -0.74023E-01   -0.73356E-01 46512   0.125E+00    0.685E-01
DAV:   3    -0.125637541716E+04   -0.20725E-02   -0.34240E-02 61704   0.261E-01    0.399E-01
DAV:   4    -0.125637362401E+04    0.17932E-02   -0.47255E-03 62820   0.129E-01    0.245E-01
DAV:   5    -0.125637285833E+04    0.76567E-03   -0.32475E-03 62592   0.116E-01    0.133E-01
DAV:   6    -0.125637285590E+04    0.24378E-05   -0.99300E-04 51012   0.540E-02
  37 F= -.12563729E+04 E0= -.12563729E+04  d E =-.126463E-01  mag=    40.0000
       N       E                     dE             d eps       ncg     rms          rms(c)
DAV:   1    -0.125637359218E+04   -0.73385E-03   -0.36197E-01 43128   0.838E-01    0.163E-01
DAV:   2    -0.125637459967E+04   -0.10075E-02   -0.11925E-02 53820   0.174E-01    0.168E-01
DAV:   3    -0.125637456258E+04    0.37095E-04   -0.66620E-04 47940   0.478E-02
  38 F= -.12563746E+04 E0= -.12563746E+04  d E =-.170668E-02  mag=    40.0000
       N       E                     dE             d eps       ncg     rms          rms(c)
DAV:   1    -0.125637595340E+04   -0.13537E-02   -0.38544E-01 43740   0.889E-01    0.300E-01
DAV:   2    -0.125637557450E+04    0.37890E-03   -0.14025E-02 60828   0.216E-01    0.215E-01
DAV:   3    -0.125637542012E+04    0.15438E-03   -0.20626E-03 61896   0.914E-02    0.112E-01
DAV:   4    -0.125637534246E+04    0.77666E-04   -0.38285E-04 43416   0.376E-02
  39 F= -.12563753E+04 E0= -.12563753E+04  d E =-.779880E-03  mag=    40.0000
       N       E                     dE             d eps       ncg     rms          rms(c)
DAV:   1    -0.125637613816E+04   -0.71804E-03   -0.36004E-02 44040   0.272E-01    0.144E-01
DAV:   2    -0.125637592681E+04    0.21135E-03   -0.22884E-03 63012   0.934E-02    0.116E-01
DAV:   3    -0.125637588117E+04    0.45638E-04   -0.38213E-04 43044   0.402E-02
  40 F= -.12563759E+04 E0= -.12563759E+04  d E =-.538718E-03  mag=    40.0000
       N       E                     dE             d eps       ncg     rms          rms(c)
DAV:   1    -0.125637624308E+04   -0.31626E-03   -0.39031E-02 43896   0.281E-01    0.106E-01
DAV:   2    -0.125637624234E+04    0.73946E-06   -0.17841E-03 59376   0.706E-02    0.924E-02
DAV:   3    -0.125637620845E+04    0.33892E-04   -0.15493E-04 31692   0.281E-02
  41 F= -.12563762E+04 E0= -.12563762E+04  d E =-.327272E-03  mag=    40.0000
       N       E                     dE             d eps       ncg     rms          rms(c)
DAV:   1    -0.125637652513E+04   -0.28279E-03   -0.95817E-02 43272   0.430E-01    0.844E-02
DAV:   2    -0.125637672555E+04   -0.20042E-03   -0.26070E-03 54588   0.793E-02    0.631E-02
DAV:   3    -0.125637671864E+04    0.69075E-05   -0.16263E-04 28704   0.227E-02
  42 F= -.12563767E+04 E0= -.12563767E+04  d E =-.510193E-03  mag=    40.0000
       N       E                     dE             d eps       ncg     rms          rms(c)
DAV:   1    -0.125637700445E+04   -0.27890E-03   -0.28963E-02 43440   0.237E-01    0.518E-02
DAV:   2    -0.125637706273E+04   -0.58285E-04   -0.94973E-04 45552   0.499E-02
  43 F= -.12563771E+04 E0= -.12563771E+04  d E =-.344095E-03  mag=    40.0000
       N       E                     dE             d eps       ncg     rms          rms(c)
DAV:   1    -0.125637706493E+04   -0.60478E-04   -0.10967E-03 39204   0.479E-02    0.341E-02
DAV:   2    -0.125637705161E+04    0.13315E-04   -0.59354E-05 25104   0.211E-02
  44 F= -.12563771E+04 E0= -.12563771E+04  d E =0.111217E-04  mag=    40.0000
       N       E                     dE             d eps       ncg     rms          rms(c)
DAV:   1    -0.125637771689E+04   -0.65197E-03   -0.21132E-01 43068   0.648E-01    0.158E-01
DAV:   2    -0.125637793460E+04   -0.21771E-03   -0.66711E-03 53904   0.125E-01    0.100E-01
DAV:   3    -0.125637789060E+04    0.44001E-04   -0.48964E-04 44964   0.471E-02
  45 F= -.12563779E+04 E0= -.12563779E+04  d E =-.838990E-03  mag=    40.0000
       N       E                     dE             d eps       ncg     rms          rms(c)
DAV:   1    -0.125637817438E+04   -0.23978E-03   -0.39440E-01 43080   0.870E-01    0.184E-01
DAV:   2    -0.125637900553E+04   -0.83115E-03   -0.11056E-02 53544   0.157E-01    0.137E-01
DAV:   3    -0.125637895246E+04    0.53067E-04   -0.67933E-04 49404   0.468E-02
  46 F= -.12563790E+04 E0= -.12563790E+04  d E =-.106186E-02  mag=    40.0000
       N       E                     dE             d eps       ncg     rms          rms(c)
DAV:   1    -0.125637876623E+04    0.23931E-03   -0.42006E-02 43080   0.290E-01    0.124E-01
DAV:   2    -0.125637877612E+04   -0.98936E-05   -0.28620E-03 60960   0.970E-02    0.122E-01
DAV:   3    -0.125637870620E+04    0.69917E-04   -0.38911E-04 41124   0.391E-02
  47 F= -.12563787E+04 E0= -.12563787E+04  d E =0.246261E-03  mag=    40.0000
       N       E                     dE             d eps       ncg     rms          rms(c)
DAV:   1    -0.125637898280E+04   -0.20668E-03   -0.12679E-01 43104   0.499E-01    0.113E-01
DAV:   2    -0.125637926355E+04   -0.28075E-03   -0.37447E-03 52668   0.945E-02    0.813E-02
DAV:   3    -0.125637925640E+04    0.71523E-05   -0.11304E-04 27828   0.262E-02
  48 F= -.12563793E+04 E0= -.12563793E+04  d E =-.550195E-03  mag=    40.0000
       N       E                     dE             d eps       ncg     rms          rms(c)
DAV:   1    -0.125637954361E+04   -0.28006E-03   -0.53007E-02 43320   0.320E-01    0.639E-02
DAV:   2    -0.125637966829E+04   -0.12468E-03   -0.14037E-03 47868   0.545E-02    0.378E-02
DAV:   3    -0.125637966426E+04    0.40314E-05   -0.43664E-05 23220   0.135E-02
  49 F= -.12563797E+04 E0= -.12563797E+04  d E =-.407861E-03  mag=    40.0000
       N       E                     dE             d eps       ncg     rms          rms(c)
DAV:   1    -0.125637984981E+04   -0.18152E-03   -0.17486E-02 43368   0.184E-01    0.355E-02
DAV:   2    -0.125637988395E+04   -0.34142E-04   -0.41553E-04 34188   0.310E-02
  50 F= -.12563799E+04 E0= -.12563799E+04  d E =-.219690E-03  mag=    40.0000
       N       E                     dE             d eps       ncg     rms          rms(c)
DAV:   1    -0.125638036997E+04   -0.52017E-03   -0.12953E-01 43032   0.503E-01    0.149E-01
DAV:   2    -0.125638054110E+04   -0.17113E-03   -0.43513E-03 56640   0.103E-01    0.104E-01
DAV:   3    -0.125638050914E+04    0.31961E-04   -0.37239E-04 41172   0.411E-02
  51 F= -.12563805E+04 E0= -.12563805E+04  d E =-.625194E-03  mag=    40.0000
       N       E                     dE             d eps       ncg     rms          rms(c)
DAV:   1    -0.125638032642E+04    0.21468E-03   -0.42079E-01 43008   0.900E-01    0.189E-01
DAV:   2    -0.125638156652E+04   -0.12401E-02   -0.10854E-02 48120   0.155E-01    0.106E-01
DAV:   3    -0.125638160882E+04   -0.42300E-04   -0.45078E-04 42624   0.326E-02
  52 F= -.12563816E+04 E0= -.12563816E+04  d E =-.109968E-02  mag=    40.0000
       N       E                     dE             d eps       ncg     rms          rms(c)
DAV:   1    -0.125638182688E+04   -0.26036E-03   -0.20116E-01 43080   0.624E-01    0.935E-02
DAV:   2    -0.125638228513E+04   -0.45825E-03   -0.52860E-03 53124   0.112E-01    0.843E-02
DAV:   3    -0.125638226519E+04    0.19943E-04   -0.17436E-04 28968   0.269E-02
  53 F= -.12563823E+04 E0= -.12563823E+04  d E =-.656368E-03  mag=    40.0000
       N       E                     dE             d eps       ncg     rms          rms(c)
DAV:   1    -0.125638233446E+04   -0.49329E-04   -0.28113E-03 40800   0.734E-02    0.413E-02
DAV:   2    -0.125638232479E+04    0.96667E-05   -0.14432E-04 25068   0.215E-02
  54 F= -.12563823E+04 E0= -.12563823E+04  d E =-.596057E-04  mag=    40.0000
       N       E                     dE             d eps       ncg     rms          rms(c)
DAV:   1    -0.125638256622E+04   -0.23177E-03   -0.10945E-01 43152   0.459E-01    0.638E-02
DAV:   2    -0.125638283433E+04   -0.26810E-03   -0.29118E-03 51144   0.802E-02    0.475E-02
DAV:   3    -0.125638283118E+04    0.31443E-05   -0.10107E-04 24120   0.177E-02
  55 F= -.12563828E+04 E0= -.12563828E+04  d E =-.506393E-03  mag=    40.0000
       N       E                     dE             d eps       ncg     rms          rms(c)
DAV:   1    -0.125638287912E+04   -0.44787E-04   -0.14995E-03 39456   0.532E-02    0.288E-02
DAV:   2    -0.125638287217E+04    0.69466E-05   -0.93606E-05 23436   0.198E-02
  56 F= -.12563829E+04 E0= -.12563829E+04  d E =-.409848E-04  mag=    40.0000
       N       E                     dE             d eps       ncg     rms          rms(c)
DAV:   1    -0.125638309059E+04   -0.21147E-03   -0.12400E-01 43152   0.490E-01    0.716E-02
DAV:   2    -0.125638339856E+04   -0.30798E-03   -0.32728E-03 47796   0.830E-02    0.400E-02
DAV:   3    -0.125638339259E+04    0.59761E-05   -0.86815E-05 25128   0.161E-02
  57 F= -.12563834E+04 E0= -.12563834E+04  d E =-.520418E-03  mag=    40.0000
       N       E                     dE             d eps       ncg     rms          rms(c)
DAV:   1    -0.125638362161E+04   -0.22304E-03   -0.17251E-01 43056   0.575E-01    0.834E-02
DAV:   2    -0.125638402515E+04   -0.40355E-03   -0.44445E-03 50520   0.941E-02    0.511E-02
DAV:   3    -0.125638400982E+04    0.15335E-04   -0.13234E-04 27192   0.200E-02
  58 F= -.12563840E+04 E0= -.12563840E+04  d E =-.617231E-03  mag=    40.0000
       N       E                     dE             d eps       ncg     rms          rms(c)
DAV:   1    -0.125638311127E+04    0.91389E-03   -0.94933E-01 43032   0.135E+00    0.184E-01
DAV:   2    -0.125638545039E+04   -0.23391E-02   -0.24549E-02 46380   0.223E-01    0.104E-01
DAV:   3    -0.125638544009E+04    0.10296E-04   -0.97807E-04 54492   0.424E-02
  59 F= -.12563854E+04 E0= -.12563854E+04  d E =-.143028E-02  mag=    40.0000
       N       E                     dE             d eps       ncg     rms          rms(c)
DAV:   1    -0.125638516421E+04    0.28618E-03   -0.20949E-02 43080   0.205E-01    0.645E-02
DAV:   2    -0.125638519456E+04   -0.30344E-04   -0.98877E-04 50460   0.510E-02
  60 F= -.12563852E+04 E0= -.12563852E+04  d E =0.245536E-03  mag=    40.0000
       N       E                     dE             d eps       ncg     rms          rms(c)
DAV:   1    -0.125638534157E+04   -0.17736E-03   -0.17645E-02 43512   0.185E-01    0.382E-02
DAV:   2    -0.125638538271E+04   -0.41132E-04   -0.53856E-04 39540   0.376E-02
  61 F= -.12563854E+04 E0= -.12563854E+04  d E =-.188147E-03  mag=    40.0000
       N       E                     dE             d eps       ncg     rms          rms(c)
DAV:   1    -0.125638554262E+04   -0.20105E-03   -0.59875E-02 43080   0.341E-01    0.709E-02
DAV:   2    -0.125638570777E+04   -0.16515E-03   -0.17590E-03 52740   0.647E-02    0.549E-02
DAV:   3    -0.125638570240E+04    0.53679E-05   -0.68802E-05 24780   0.179E-02
  62 F= -.12563857E+04 E0= -.12563857E+04  d E =-.319700E-03  mag=    40.0000
       N       E                     dE             d eps       ncg     rms          rms(c)
DAV:   1    -0.125638577690E+04   -0.69126E-04   -0.45760E-03 42252   0.940E-02    0.277E-02
DAV:   2    -0.125638578535E+04   -0.84494E-05   -0.10198E-04 23088   0.172E-02
  63 F= -.12563858E+04 E0= -.12563858E+04  d E =-.829433E-04  mag=    40.0000
       N       E                     dE             d eps       ncg     rms          rms(c)
DAV:   1    -0.125638585435E+04   -0.77454E-04   -0.11282E-01 43056   0.466E-01    0.108E-01
DAV:   2    -0.125638618511E+04   -0.33076E-03   -0.31682E-03 52080   0.856E-02    0.817E-02
DAV:   3    -0.125638618645E+04   -0.13331E-05   -0.13600E-04 27972   0.245E-02
  64 F= -.12563862E+04 E0= -.12563862E+04  d E =-.401099E-03  mag=    40.0000
       N       E                     dE             d eps       ncg     rms          rms(c)
DAV:   1    -0.125638586014E+04    0.32497E-03   -0.36156E-02 43080   0.265E-01    0.752E-02
DAV:   2    -0.125638597786E+04   -0.11772E-03   -0.12078E-03 50544   0.569E-02    0.591E-02
DAV:   3    -0.125638598090E+04   -0.30379E-05   -0.75200E-05 25296   0.195E-02
  65 F= -.12563860E+04 E0= -.12563860E+04  d E =0.205551E-03  mag=    40.0000
       N       E                     dE             d eps       ncg     rms          rms(c)
DAV:   1    -0.125638632653E+04   -0.34867E-03   -0.55732E-02 43452   0.337E-01    0.117E-01
DAV:   2    -0.125638627141E+04    0.55118E-04   -0.21999E-03 57312   0.757E-02    0.806E-02
DAV:   3    -0.125638624608E+04    0.25328E-04   -0.20404E-04 34380   0.329E-02
  66 F= -.12563862E+04 E0= -.12563862E+04  d E =-.265188E-03  mag=    40.0000
       N       E                     dE             d eps       ncg     rms          rms(c)
DAV:   1    -0.125638636865E+04   -0.97239E-04   -0.13689E-02 43164   0.162E-01    0.343E-02
DAV:   2    -0.125638639899E+04   -0.30342E-04   -0.40812E-04 34128   0.323E-02
  67 F= -.12563864E+04 E0= -.12563864E+04  d E =-.152909E-03  mag=    40.0000
       N       E                     dE             d eps       ncg     rms          rms(c)
DAV:   1    -0.125638657537E+04   -0.20672E-03   -0.24007E-02 43164   0.221E-01    0.818E-02
DAV:   2    -0.125638657880E+04   -0.34251E-05   -0.93102E-04 47688   0.503E-02
  68 F= -.12563866E+04 E0= -.12563866E+04  d E =-.179806E-03  mag=    40.0000
       N       E                     dE             d eps       ncg     rms          rms(c)
DAV:   1    -0.125638670384E+04   -0.12846E-03   -0.87483E-02 43056   0.411E-01    0.166E-01
DAV:   2    -0.125638680073E+04   -0.96895E-04   -0.31949E-03 58152   0.919E-02    0.114E-01
DAV:   3    -0.125638678221E+04    0.18522E-04   -0.28168E-04 38496   0.370E-02
  69 F= -.12563868E+04 E0= -.12563868E+04  d E =-.203413E-03  mag=    40.0000
       N       E                     dE             d eps       ncg     rms          rms(c)
DAV:   1    -0.125638697633E+04   -0.17560E-03   -0.42544E-03 47328   0.983E-02    0.841E-02
DAV:   2    -0.125638688788E+04    0.88453E-04   -0.71791E-04 50556   0.449E-02
  70 F= -.12563869E+04 E0= -.12563869E+04  d E =-.105670E-03  mag=    40.0000
       N       E                     dE             d eps       ncg     rms          rms(c)
DAV:   1    -0.125638695412E+04    0.22213E-04   -0.21378E-03 47268   0.691E-02    0.428E-02
DAV:   2    -0.125638693289E+04    0.21230E-04   -0.85719E-05 23748   0.204E-02
  71 F= -.12563869E+04 E0= -.12563869E+04  d E =-.450103E-04  mag=    40.0000
       N       E                     dE             d eps       ncg     rms          rms(c)
DAV:   1    -0.125638729863E+04   -0.34451E-03   -0.85041E-02 43716   0.417E-01    0.158E-01
DAV:   2    -0.125638715776E+04    0.14087E-03   -0.34866E-03 56676   0.988E-02    0.122E-01
DAV:   3    -0.125638711880E+04    0.38967E-04   -0.35296E-04 42096   0.412E-02
  72 F= -.12563871E+04 E0= -.12563871E+04  d E =-.185903E-03  mag=    40.0000
       N       E                     dE             d eps       ncg     rms          rms(c)
DAV:   1    -0.125638741758E+04   -0.25982E-03   -0.26567E-02 43404   0.233E-01    0.903E-02
DAV:   2    -0.125638740022E+04    0.17363E-04   -0.14091E-03 59268   0.640E-02    0.862E-02
DAV:   3    -0.125638737784E+04    0.22378E-04   -0.11313E-04 27072   0.248E-02
  73 F= -.12563874E+04 E0= -.12563874E+04  d E =-.259042E-03  mag=    40.0000
       N       E                     dE             d eps       ncg     rms          rms(c)
DAV:   1    -0.125638746524E+04   -0.65025E-04   -0.45214E-02 43056   0.300E-01    0.931E-02
DAV:   2    -0.125638754373E+04   -0.78493E-04   -0.14705E-03 55704   0.692E-02    0.819E-02
DAV:   3    -0.125638753933E+04    0.44040E-05   -0.11707E-04 29808   0.236E-02
  74 F= -.12563875E+04 E0= -.12563875E+04  d E =-.161491E-03  mag=    40.0000
       N       E                     dE             d eps       ncg     rms          rms(c)
DAV:   1    -0.125638766449E+04   -0.12075E-03   -0.35435E-02 43056   0.264E-01    0.587E-02
DAV:   2    -0.125638776404E+04   -0.99548E-04   -0.11907E-03 53136   0.566E-02    0.571E-02
DAV:   3    -0.125638775611E+04    0.79205E-05   -0.70659E-05 23880   0.183E-02
  75 F= -.12563878E+04 E0= -.12563878E+04  d E =-.216786E-03  mag=    40.0000
       N       E                     dE             d eps       ncg     rms          rms(c)
DAV:   1    -0.125638778945E+04   -0.25418E-04   -0.37828E-04 34056   0.291E-02    0.263E-02
DAV:   2    -0.125638778639E+04    0.30599E-05   -0.25933E-05 22500   0.120E-02
  76 F= -.12563878E+04 E0= -.12563878E+04  d E =-.302788E-04  mag=    40.0000
       N       E                     dE             d eps       ncg     rms          rms(c)
DAV:   1    -0.125638821333E+04   -0.42387E-03   -0.10476E-01 43572   0.463E-01    0.157E-01
DAV:   2    -0.125638815801E+04    0.55311E-04   -0.39722E-03 55776   0.981E-02    0.953E-02
DAV:   3    -0.125638812143E+04    0.36580E-04   -0.36123E-04 41460   0.432E-02
  77 F= -.12563881E+04 E0= -.12563881E+04  d E =-.335041E-03  mag=    40.0000
       N       E                     dE             d eps       ncg     rms          rms(c)
DAV:   1    -0.125638824729E+04   -0.89279E-04   -0.15724E-02 43080   0.174E-01    0.466E-02
DAV:   2    -0.125638828514E+04   -0.37845E-04   -0.48309E-04 37788   0.354E-02
  78 F= -.12563883E+04 E0= -.12563883E+04  d E =-.163704E-03  mag=    40.0000
       N       E                     dE             d eps       ncg     rms          rms(c)
DAV:   1    -0.125638840395E+04   -0.15665E-03   -0.29601E-02 43056   0.238E-01    0.113E-01
DAV:   2    -0.125638844255E+04   -0.38604E-04   -0.10471E-03 50616   0.532E-02    0.696E-02
DAV:   3    -0.125638844175E+04    0.80340E-06   -0.10063E-04 30456   0.238E-02
  79 F= -.12563884E+04 E0= -.12563884E+04  d E =-.156609E-03  mag=    40.0000
       N       E                     dE             d eps       ncg     rms          rms(c)
DAV:   1    -0.125638854192E+04   -0.99374E-04   -0.44402E-02 43056   0.295E-01    0.788E-02
DAV:   2    -0.125638865257E+04   -0.11065E-03   -0.19195E-03 58344   0.753E-02    0.945E-02
DAV:   3    -0.125638862413E+04    0.28438E-04   -0.12345E-04 26556   0.234E-02
  80 F= -.12563886E+04 E0= -.12563886E+04  d E =-.182385E-03  mag=    40.0000
       N       E                     dE             d eps       ncg     rms          rms(c)
DAV:   1    -0.125638879930E+04   -0.14673E-03   -0.85574E-03 43920   0.134E-01    0.653E-02
DAV:   2    -0.125638877594E+04    0.23353E-04   -0.59023E-04 50124   0.418E-02
  81 F= -.12563888E+04 E0= -.12563888E+04  d E =-.151810E-03  mag=    40.0000
       N       E                     dE             d eps       ncg     rms          rms(c)
DAV:   1    -0.125638884921E+04   -0.49912E-04   -0.59125E-02 43032   0.338E-01    0.806E-02
DAV:   2    -0.125638901783E+04   -0.16862E-03   -0.16855E-03 54384   0.692E-02    0.661E-02
DAV:   3    -0.125638902167E+04   -0.38448E-05   -0.10401E-04 26904   0.206E-02
  82 F= -.12563890E+04 E0= -.12563890E+04  d E =-.245731E-03  mag=    40.0000
       N       E                     dE             d eps       ncg     rms          rms(c)
DAV:   1    -0.125638883840E+04    0.17943E-03   -0.20210E-02 43056   0.199E-01    0.497E-02
DAV:   2    -0.125638888279E+04   -0.44397E-04   -0.77357E-04 46560   0.475E-02
  83 F= -.12563889E+04 E0= -.12563889E+04  d E =0.138879E-03  mag=    40.0000
       N       E                     dE             d eps       ncg     rms          rms(c)
DAV:   1    -0.125638890277E+04   -0.64370E-04   -0.10323E-01 43056   0.449E-01    0.838E-02
DAV:   2    -0.125638919771E+04   -0.29494E-03   -0.34342E-03 55968   0.984E-02    0.945E-02
DAV:   3    -0.125638917850E+04    0.19211E-04   -0.21310E-04 29892   0.294E-02
  84 F= -.12563892E+04 E0= -.12563892E+04  d E =-.295702E-03  mag=    40.0000
       N       E                     dE             d eps       ncg     rms          rms(c)
DAV:   1    -0.125638927253E+04   -0.74826E-04   -0.15243E-02 43056   0.171E-01    0.460E-02
DAV:   2    -0.125638932955E+04   -0.57016E-04   -0.81837E-04 53388   0.451E-02
  85 F= -.12563893E+04 E0= -.12563893E+04  d E =-.151053E-03  mag=    40.0000
       N       E                     dE             d eps       ncg     rms          rms(c)
DAV:   1    -0.125638942779E+04   -0.15526E-03   -0.21326E-02 43068   0.202E-01    0.571E-02
DAV:   2    -0.125638948369E+04   -0.55900E-04   -0.73928E-04 49176   0.428E-02
  86 F= -.12563895E+04 E0= -.12563895E+04  d E =-.154144E-03  mag=    40.0000
       N       E                     dE             d eps       ncg     rms          rms(c)
DAV:   1    -0.125638948749E+04   -0.59696E-04   -0.72813E-02 43032   0.372E-01    0.103E-01
DAV:   2    -0.125638974971E+04   -0.26222E-03   -0.19512E-03 52104   0.682E-02    0.614E-02
DAV:   3    -0.125638976237E+04   -0.12662E-04   -0.83136E-05 26256   0.165E-02
  87 F= -.12563898E+04 E0= -.12563898E+04  d E =-.278680E-03  mag=    40.0000
       N       E                     dE             d eps       ncg     rms          rms(c)
DAV:   1    -0.125638969524E+04    0.54474E-04   -0.37981E-03 41028   0.845E-02    0.376E-02
DAV:   2    -0.125638970736E+04   -0.12119E-04   -0.15207E-04 25944   0.233E-02
  88 F= -.12563897E+04 E0= -.12563897E+04  d E =0.550181E-04  mag=    40.0000
       N       E                     dE             d eps       ncg     rms          rms(c)
DAV:   1    -0.125638978931E+04   -0.94070E-04   -0.77249E-02 43056   0.387E-01    0.796E-02
DAV:   2    -0.125638998314E+04   -0.19383E-03   -0.26010E-03 55272   0.844E-02    0.861E-02
DAV:   3    -0.125638996684E+04    0.16300E-04   -0.16268E-04 28800   0.252E-02
  89 F= -.12563900E+04 E0= -.12563900E+04  d E =-.259483E-03  mag=    40.0000
       N       E                     dE             d eps       ncg     rms          rms(c)
DAV:   1    -0.125639006498E+04   -0.81841E-04   -0.15028E-02 43056   0.173E-01    0.592E-02
DAV:   2    -0.125639009974E+04   -0.34763E-04   -0.93257E-04 56700   0.534E-02
  90 F= -.12563901E+04 E0= -.12563901E+04  d E =-.132904E-03  mag=    40.0000
       N       E                     dE             d eps       ncg     rms          rms(c)
DAV:   1    -0.125639019070E+04   -0.12572E-03   -0.29040E-02 43056   0.236E-01    0.672E-02
DAV:   2    -0.125639026021E+04   -0.69515E-04   -0.10812E-03 57084   0.590E-02    0.631E-02
DAV:   3    -0.125639024632E+04    0.13886E-04   -0.11333E-04 26172   0.219E-02
  91 F= -.12563902E+04 E0= -.12563902E+04  d E =-.146583E-03  mag=    40.0000
       N       E                     dE             d eps       ncg     rms          rms(c)
DAV:   1    -0.125639033567E+04   -0.75461E-04   -0.19079E-02 43056   0.192E-01    0.353E-02
DAV:   2    -0.125639038902E+04   -0.53345E-04   -0.64339E-04 43884   0.408E-02
  92 F= -.12563904E+04 E0= -.12563904E+04  d E =-.142692E-03  mag=    40.0000
       N       E                     dE             d eps       ncg     rms          rms(c)
DAV:   1    -0.125639048950E+04   -0.15383E-03   -0.30452E-02 43032   0.242E-01    0.541E-02
DAV:   2    -0.125639056824E+04   -0.78737E-04   -0.97979E-04 49812   0.489E-02
  93 F= -.12563906E+04 E0= -.12563906E+04  d E =-.179218E-03  mag=    40.0000
       N       E                     dE             d eps       ncg     rms          rms(c)
DAV:   1    -0.125639062644E+04   -0.13694E-03   -0.37804E-03 42600   0.857E-02    0.331E-02
DAV:   2    -0.125639062283E+04    0.36065E-05   -0.13635E-04 25704   0.216E-02
  94 F= -.12563906E+04 E0= -.12563906E+04  d E =-.545968E-04  mag=    40.0000
       N       E                     dE             d eps       ncg     rms          rms(c)
DAV:   1    -0.125639036960E+04    0.25684E-03   -0.29321E-02 43056   0.239E-01    0.387E-02
DAV:   2    -0.125639044699E+04   -0.77391E-04   -0.84045E-04 43440   0.442E-02
  95 F= -.12563904E+04 E0= -.12563904E+04  d E =0.175838E-03  mag=    40.0000
       N       E                     dE             d eps       ncg     rms          rms(c)
DAV:   1    -0.125639047930E+04   -0.10970E-03   -0.12985E-01 43032   0.502E-01    0.778E-02
DAV:   2    -0.125639081025E+04   -0.33095E-03   -0.35236E-03 45972   0.860E-02    0.398E-02
DAV:   3    -0.125639081215E+04   -0.19063E-05   -0.92633E-05 22848   0.174E-02
  96 F= -.12563908E+04 E0= -.12563908E+04  d E =-.365158E-03  mag=    40.0000
       N       E                     dE             d eps       ncg     rms          rms(c)
DAV:   1    -0.125639092252E+04   -0.11228E-03   -0.41351E-02 43056   0.282E-01    0.434E-02
DAV:   2    -0.125639101503E+04   -0.92506E-04   -0.11174E-03 49920   0.484E-02    0.355E-02
DAV:   3    -0.125639100892E+04    0.61075E-05   -0.41552E-05 23040   0.126E-02
  97 F= -.12563910E+04 E0= -.12563910E+04  d E =-.196771E-03  mag=    40.0000
       N       E                     dE             d eps       ncg     rms          rms(c)
DAV:   1    -0.125639110527E+04   -0.90240E-04   -0.46437E-02 43032   0.299E-01    0.534E-02
DAV:   2    -0.125639122290E+04   -0.11763E-03   -0.11977E-03 47016   0.507E-02    0.348E-02
DAV:   3    -0.125639122227E+04    0.63192E-06   -0.37395E-05 22776   0.119E-02
  98 F= -.12563912E+04 E0= -.12563912E+04  d E =-.213345E-03  mag=    40.0000
       N       E                     dE             d eps       ncg     rms          rms(c)
DAV:   1    -0.125639131861E+04   -0.95712E-04   -0.23666E-02 43080   0.213E-01    0.341E-02
DAV:   2    -0.125639137180E+04   -0.53183E-04   -0.59561E-04 40932   0.352E-02
  99 F= -.12563914E+04 E0= -.12563914E+04  d E =-.149527E-03  mag=    40.0000
