       N       E                     dE             d eps       ncg     rms          rms(c)
DAV:   1     0.110848391463E+05    0.11085E+05   -0.39367E+05 43032   0.125E+03
DAV:   2     0.103697039306E+04   -0.10048E+05   -0.92504E+04 44352   0.350E+02
DAV:   3    -0.142770905533E+04   -0.24647E+04   -0.23844E+04 48396   0.180E+02
DAV:   4    -0.164988969576E+04   -0.22218E+03   -0.21872E+03 64908   0.603E+01
DAV:   5    -0.165838770514E+04   -0.84980E+01   -0.83778E+01 67560   0.137E+01
DAV:   6    -0.165877874355E+04   -0.39104E+00   -0.38735E+00 68004   0.251E+00
DAV:   7    -0.165880263409E+04   -0.23891E-01   -0.23777E-01 68292   0.620E-01
DAV:   8    -0.165880439146E+04   -0.17574E-02   -0.17529E-02 63408   0.144E-01
DAV:   9    -0.165880453306E+04   -0.14161E-03   -0.14136E-03 44220   0.419E-02
DAV:  10    -0.165880454560E+04   -0.12539E-04   -0.12503E-04 36264   0.159E-02
DAV:  11    -0.165880454804E+04   -0.24395E-05   -0.24234E-05 33804   0.993E-03
DAV:  12    -0.165880454931E+04   -0.12675E-05   -0.12592E-05 32892   0.717E-03    0.162E+02
DAV:  13    -0.122019939485E+04    0.43861E+03   -0.25551E+03 63540   0.806E+01    0.104E+02
DAV:  14    -0.125829007339E+04   -0.38091E+02   -0.70341E+02 67812   0.472E+01    0.690E+01
DAV:  15    -0.125489398334E+04    0.33961E+01   -0.89712E+01 62772   0.217E+01    0.443E+01
DAV:  16    -0.125714042234E+04   -0.22464E+01   -0.56310E+01 65844   0.182E+01    0.357E+01
DAV:  17    -0.125555439257E+04    0.15860E+01   -0.17579E+01 63228   0.685E+00    0.163E+01
DAV:  18    -0.125462400360E+04    0.93039E+00   -0.67793E+00 64032   0.633E+00    0.738E+00
DAV:  19    -0.125427189786E+04    0.35211E+00   -0.28359E+00 62736   0.328E+00    0.313E+00
DAV:  20    -0.125434088457E+04   -0.68987E-01   -0.51558E-01 59832   0.115E+00    0.209E+00
DAV:  21    -0.125433668496E+04    0.41996E-02   -0.11410E-01 62808   0.780E-01    0.677E-01
DAV:  22    -0.125434060630E+04   -0.39213E-02   -0.37301E-02 58404   0.315E-01    0.413E-01
DAV:  23    -0.125434021567E+04    0.39063E-03   -0.53572E-03 59028   0.148E-01    0.266E-01
DAV:  24    -0.125434016812E+04    0.47556E-04   -0.51952E-03 63396   0.117E-01    0.161E-01
DAV:  25    -0.125434003612E+04    0.13200E-03   -0.11200E-03 59424   0.636E-02    0.868E-02
DAV:  26    -0.125433996681E+04    0.69306E-04   -0.28716E-04 37812   0.389E-02
   1 F= -.12543400E+04 E0= -.12543400E+04  d E =-.125434E+04  mag=    39.9717
       N       E                     dE             d eps       ncg     rms          rms(c)
DAV:   1    -0.125635092499E+04   -0.20109E+01   -0.10628E+03 43032   0.461E+01    0.190E+01
DAV:   2    -0.125722009296E+04   -0.86917E+00   -0.61953E+01 63588   0.170E+01    0.207E+01
DAV:   3    -0.125644828923E+04    0.77180E+00   -0.48416E+00 59280   0.501E+00    0.122E+01
DAV:   4    -0.125606654452E+04    0.38174E+00   -0.86086E-01 63744   0.173E+00    0.821E+00
DAV:   5    -0.125595911880E+04    0.10743E+00   -0.58697E-01 61584   0.154E+00    0.303E+00
DAV:   6    -0.125595546854E+04    0.36503E-02   -0.28498E-01 62292   0.101E+00    0.129E+00
DAV:   7    -0.125595459140E+04    0.87715E-03   -0.63140E-02 60540   0.479E-01    0.676E-01
DAV:   8    -0.125595347383E+04    0.11176E-02   -0.95806E-03 63636   0.182E-01    0.317E-01
DAV:   9    -0.125595305798E+04    0.41584E-03   -0.43549E-03 63252   0.130E-01    0.198E-01
DAV:  10    -0.125595301797E+04    0.40014E-04   -0.15383E-03 61092   0.812E-02    0.122E-01
DAV:  11    -0.125595299580E+04    0.22164E-04   -0.48615E-04 46116   0.485E-02
   2 F= -.12559530E+04 E0= -.12559530E+04  d E =-.161303E+01  mag=    39.9817
       N       E                     dE             d eps       ncg     rms          rms(c)
DAV:   1    -0.125790859553E+04   -0.19556E+01   -0.94347E+01 44220   0.147E+01    0.107E+01
DAV:   2    -0.125677998870E+04    0.11286E+01   -0.11791E+01 63036   0.664E+00    0.106E+01
DAV:   3    -0.125645784053E+04    0.32215E+00   -0.24726E+00 63024   0.286E+00    0.466E+00
DAV:   4    -0.125641870654E+04    0.39134E-01   -0.30296E-01 62628   0.839E-01    0.303E+00
DAV:   5    -0.125640484418E+04    0.13862E-01   -0.98852E-02 62412   0.632E-01    0.147E+00
DAV:   6    -0.125639675439E+04    0.80898E-02   -0.65975E-02 64236   0.435E-01    0.469E-01
DAV:   7    -0.125639737076E+04   -0.61637E-03   -0.14886E-02 59940   0.214E-01    0.343E-01
DAV:   8    -0.125639740932E+04   -0.38551E-04   -0.21484E-03 62952   0.834E-02    0.200E-01
DAV:   9    -0.125639739325E+04    0.16066E-04   -0.11576E-03 54120   0.618E-02    0.135E-01
DAV:  10    -0.125639741781E+04   -0.24561E-04   -0.38485E-04 45048   0.440E-02
   3 F= -.12563974E+04 E0= -.12563974E+04  d E =-.444422E+00  mag=    39.9878
       N       E                     dE             d eps       ncg     rms          rms(c)
DAV:   1    -0.125659016200E+04   -0.19277E+00   -0.43225E+01 43008   0.933E+00    0.326E+00
DAV:   2    -0.125667116557E+04   -0.81004E-01   -0.22678E+00 60600   0.291E+00    0.377E+00
DAV:   3    -0.125663799487E+04    0.33171E-01   -0.25079E-01 59424   0.987E-01    0.234E+00
DAV:   4    -0.125662350328E+04    0.14492E-01   -0.67006E-02 60792   0.375E-01    0.163E+00
DAV:   5    -0.125661742769E+04    0.60756E-02   -0.23238E-02 58656   0.351E-01    0.726E-01
DAV:   6    -0.125661604284E+04    0.13848E-02   -0.21436E-02 62580   0.265E-01    0.381E-01
DAV:   7    -0.125661627439E+04   -0.23154E-03   -0.50738E-03 57252   0.110E-01    0.189E-01
DAV:   8    -0.125661621832E+04    0.56066E-04   -0.52073E-04 45492   0.412E-02
   4 F= -.12566162E+04 E0= -.12566162E+04  d E =-.218801E+00  mag=    39.9910
       N       E                     dE             d eps       ncg     rms          rms(c)
DAV:   1    -0.125680898550E+04   -0.19271E+00   -0.47035E+01 43296   0.979E+00    0.422E+00
DAV:   2    -0.125671609778E+04    0.92888E-01   -0.26730E+00 61524   0.294E+00    0.397E+00
DAV:   3    -0.125667977518E+04    0.36323E-01   -0.32796E-01 60348   0.116E+00    0.227E+00
DAV:   4    -0.125666118561E+04    0.18590E-01   -0.10946E-01 62844   0.525E-01    0.158E+00
DAV:   5    -0.125665575728E+04    0.54283E-02   -0.24773E-02 58440   0.359E-01    0.767E-01
DAV:   6    -0.125665460251E+04    0.11548E-02   -0.15741E-02 64500   0.229E-01    0.253E-01
DAV:   7    -0.125665475297E+04   -0.15046E-03   -0.35775E-03 64692   0.132E-01    0.191E-01
DAV:   8    -0.125665477438E+04   -0.21411E-04   -0.96755E-04 55440   0.646E-02
   5 F= -.12566548E+04 E0= -.12566548E+04  d E =-.385561E-01  mag=    39.9934
       N       E                     dE             d eps       ncg     rms          rms(c)
DAV:   1    -0.125686843286E+04   -0.21368E+00   -0.16661E+01 43368   0.584E+00    0.267E+00
DAV:   2    -0.125681368041E+04    0.54752E-01   -0.88290E-01 59532   0.166E+00    0.234E+00
DAV:   3    -0.125680118160E+04    0.12499E-01   -0.11707E-01 58980   0.683E-01    0.119E+00
DAV:   4    -0.125679320173E+04    0.79799E-02   -0.54346E-02 63564   0.388E-01    0.726E-01
DAV:   5    -0.125679134412E+04    0.18576E-02   -0.13625E-02 59088   0.227E-01    0.387E-01
DAV:   6    -0.125679096246E+04    0.38166E-03   -0.76809E-03 64200   0.155E-01    0.162E-01
DAV:   7    -0.125679093032E+04    0.32149E-04   -0.16877E-03 63420   0.794E-02    0.102E-01
DAV:   8    -0.125679094046E+04   -0.10141E-04   -0.67931E-04 51252   0.411E-02
   6 F= -.12567909E+04 E0= -.12567909E+04  d E =-.136166E+00  mag=    39.9953
       N       E                     dE             d eps       ncg     rms          rms(c)
DAV:   1    -0.125683717309E+04   -0.46243E-01   -0.11844E+01 43008   0.490E+00    0.161E+00
DAV:   2    -0.125684450785E+04   -0.73348E-02   -0.52002E-01 60540   0.122E+00    0.145E+00
DAV:   3    -0.125683854512E+04    0.59627E-02   -0.55587E-02 59172   0.452E-01    0.718E-01
DAV:   4    -0.125683694393E+04    0.16012E-02   -0.58422E-03 60372   0.166E-01    0.501E-01
DAV:   5    -0.125683656489E+04    0.37904E-03   -0.41145E-03 63096   0.116E-01    0.226E-01
DAV:   6    -0.125683645775E+04    0.10714E-03   -0.86154E-04 56892   0.586E-02    0.114E-01
DAV:   7    -0.125683647013E+04   -0.12379E-04   -0.25966E-04 30636   0.298E-02
   7 F= -.12568365E+04 E0= -.12568365E+04  d E =-.455297E-01  mag=    39.9965
       N       E                     dE             d eps       ncg     rms          rms(c)
DAV:   1    -0.125686956228E+04   -0.33105E-01   -0.20000E+00 43944   0.206E+00    0.105E+00
DAV:   2    -0.125686122262E+04    0.83397E-02   -0.14643E-01 62700   0.700E-01    0.991E-01
DAV:   3    -0.125685785170E+04    0.33709E-02   -0.25249E-02 60864   0.286E-01    0.446E-01
DAV:   4    -0.125685736641E+04    0.48529E-03   -0.42312E-03 62484   0.110E-01    0.299E-01
DAV:   5    -0.125685715490E+04    0.21151E-03   -0.10820E-03 58260   0.684E-02    0.163E-01
DAV:   6    -0.125685708089E+04    0.74016E-04   -0.59555E-04 48192   0.425E-02
   8 F= -.12568571E+04 E0= -.12568571E+04  d E =-.206108E-01  mag=    39.9972
       N       E                     dE             d eps       ncg     rms          rms(c)
DAV:   1    -0.125687030972E+04   -0.13155E-01   -0.56970E+00 43032   0.334E+00    0.545E-01
DAV:   2    -0.125688629443E+04   -0.15985E-01   -0.16951E-01 55176   0.632E-01    0.504E-01
DAV:   3    -0.125688606808E+04    0.22635E-03   -0.71926E-03 59508   0.160E-01    0.299E-01
DAV:   4    -0.125688569762E+04    0.37047E-03   -0.11180E-03 58404   0.618E-02    0.219E-01
DAV:   5    -0.125688534678E+04    0.35084E-03   -0.70389E-04 54036   0.774E-02    0.969E-02
DAV:   6    -0.125688540507E+04   -0.58291E-04   -0.11218E-03 52404   0.502E-02    0.611E-02
DAV:   7    -0.125688538811E+04    0.16957E-04   -0.12204E-04 25452   0.251E-02
   9 F= -.12568854E+04 E0= -.12568854E+04  d E =-.283072E-01  mag=    39.9979
       N       E                     dE             d eps       ncg     rms          rms(c)
DAV:   1    -0.125689602878E+04   -0.10624E-01   -0.67495E+00 43008   0.360E+00    0.686E-01
DAV:   2    -0.125691352552E+04   -0.17497E-01   -0.20168E-01 53676   0.667E-01    0.538E-01
DAV:   3    -0.125691369138E+04   -0.16586E-03   -0.11214E-02 57864   0.164E-01    0.346E-01
DAV:   4    -0.125691299845E+04    0.69292E-03   -0.32441E-03 63000   0.106E-01    0.219E-01
DAV:   5    -0.125691287409E+04    0.12436E-03   -0.17195E-03 62316   0.800E-02    0.127E-01
DAV:   6    -0.125691284195E+04    0.32137E-04   -0.34063E-04 38328   0.389E-02
  10 F= -.12569128E+04 E0= -.12569128E+04  d E =-.274538E-01  mag=    39.9983
       N       E                     dE             d eps       ncg     rms          rms(c)
DAV:   1    -0.125690037356E+04    0.12501E-01   -0.20709E+01 43008   0.637E+00    0.106E+00
DAV:   2    -0.125695508522E+04   -0.54712E-01   -0.59833E-01 49236   0.113E+00    0.686E-01
DAV:   3    -0.125695515571E+04   -0.70490E-04   -0.23875E-02 60156   0.265E-01    0.478E-01
DAV:   4    -0.125695391905E+04    0.12367E-02   -0.52152E-03 62952   0.126E-01    0.280E-01
DAV:   5    -0.125695292259E+04    0.99647E-03   -0.18077E-03 63720   0.122E-01    0.154E-01
DAV:   6    -0.125695302006E+04   -0.97474E-04   -0.29861E-03 56364   0.850E-02    0.104E-01
DAV:   7    -0.125695298519E+04    0.34875E-04   -0.48202E-04 44784   0.412E-02
  11 F= -.12569530E+04 E0= -.12569530E+04  d E =-.401432E-01  mag=    39.9987
       N       E                     dE             d eps       ncg     rms          rms(c)
DAV:   1    -0.125696231548E+04   -0.92954E-02   -0.11096E+00 43128   0.150E+00    0.574E-01
DAV:   2    -0.125696141951E+04    0.89597E-03   -0.52203E-02 61164   0.391E-01    0.502E-01
DAV:   3    -0.125696078685E+04    0.63266E-03   -0.68568E-03 60648   0.151E-01    0.251E-01
DAV:   4    -0.125696053451E+04    0.25234E-03   -0.17109E-03 59136   0.772E-02    0.179E-01
DAV:   5    -0.125696045171E+04    0.82800E-04   -0.42425E-04 46200   0.448E-02
  12 F= -.12569605E+04 E0= -.12569605E+04  d E =-.746652E-02  mag=    39.9989
       N       E                     dE             d eps       ncg     rms          rms(c)
DAV:   1    -0.125696817992E+04   -0.76454E-02   -0.25338E+00 43008   0.223E+00    0.503E-01
DAV:   2    -0.125697325541E+04   -0.50755E-02   -0.80070E-02 55140   0.430E-01    0.356E-01
DAV:   3    -0.125697309002E+04    0.16540E-03   -0.65051E-03 57996   0.149E-01    0.164E-01
DAV:   4    -0.125697283027E+04    0.25974E-03   -0.13734E-03 60732   0.746E-02    0.112E-01
DAV:   5    -0.125697278221E+04    0.48059E-04   -0.60178E-04 48516   0.407E-02
  13 F= -.12569728E+04 E0= -.12569728E+04  d E =-.123305E-01  mag=    39.9991
       N       E                     dE             d eps       ncg     rms          rms(c)
DAV:   1    -0.125697552629E+04   -0.26960E-02   -0.17177E+00 43032   0.184E+00    0.344E-01
DAV:   2    -0.125698041405E+04   -0.48878E-02   -0.55645E-02 53100   0.375E-01    0.343E-01
DAV:   3    -0.125698030826E+04    0.10578E-03   -0.37128E-03 58956   0.104E-01    0.212E-01
DAV:   4    -0.125698003224E+04    0.27602E-03   -0.12491E-03 55536   0.662E-02    0.160E-01
DAV:   5    -0.125697998187E+04    0.50372E-04   -0.83138E-04 51384   0.647E-02
  14 F= -.12569800E+04 E0= -.12569800E+04  d E =-.719966E-02  mag=    39.9993
       N       E                     dE             d eps       ncg     rms          rms(c)
DAV:   1    -0.125698424027E+04   -0.42080E-02   -0.31041E-01 43224   0.764E-01    0.217E-01
DAV:   2    -0.125698480470E+04   -0.56443E-03   -0.11882E-02 58584   0.195E-01    0.251E-01
DAV:   3    -0.125698478039E+04    0.24309E-04   -0.18468E-03 56460   0.646E-02    0.170E-01
DAV:   4    -0.125698466049E+04    0.11990E-03   -0.65749E-04 47304   0.416E-02    0.134E-01
DAV:   5    -0.125698464004E+04    0.20447E-04   -0.27198E-04 33948   0.335E-02
  15 F= -.12569846E+04 E0= -.12569846E+04  d E =-.465817E-02  mag=    39.9994
       N       E                     dE             d eps       ncg     rms          rms(c)
DAV:   1    -0.125698808806E+04   -0.34276E-02   -0.17111E+00 43032   0.183E+00    0.298E-01
DAV:   2    -0.125699278655E+04   -0.46985E-02   -0.50573E-02 52428   0.334E-01    0.221E-01
DAV:   3    -0.125699278830E+04   -0.17501E-05   -0.24398E-03 58476   0.825E-02    0.148E-01
DAV:   4    -0.125699265410E+04    0.13420E-03   -0.37330E-04 39564   0.416E-02    0.102E-01
DAV:   5    -0.125699258114E+04    0.72966E-04   -0.52059E-04 46236   0.576E-02
  16 F= -.12569926E+04 E0= -.12569926E+04  d E =-.794109E-02  mag=    39.9995
       N       E                     dE             d eps       ncg     rms          rms(c)
DAV:   1    -0.125699597410E+04   -0.33200E-02   -0.84113E-01 43104   0.128E+00    0.276E-01
DAV:   2    -0.125699802835E+04   -0.20542E-02   -0.26229E-02 54624   0.251E-01    0.205E-01
DAV:   3    -0.125699807915E+04   -0.50805E-04   -0.26378E-03 58284   0.834E-02    0.105E-01
DAV:   4    -0.125699796807E+04    0.11108E-03   -0.55348E-04 47940   0.492E-02    0.809E-02
DAV:   5    -0.125699795760E+04    0.10462E-04   -0.33543E-04 35340   0.338E-02
  17 F= -.12569980E+04 E0= -.12569980E+04  d E =-.537647E-02  mag=    39.9996
       N       E                     dE             d eps       ncg     rms          rms(c)
DAV:   1    -0.125700067334E+04   -0.27053E-02   -0.74714E-01 43128   0.121E+00    0.211E-01
DAV:   2    -0.125700274476E+04   -0.20714E-02   -0.22714E-02 54324   0.235E-01    0.188E-01
DAV:   3    -0.125700274574E+04   -0.97990E-06   -0.15361E-03 59112   0.654E-02    0.111E-01
DAV:   4    -0.125700265806E+04    0.87678E-04   -0.18574E-04 31476   0.368E-02
  18 F= -.12570027E+04 E0= -.12570027E+04  d E =-.470046E-02  mag=    39.9996
       N       E                     dE             d eps       ncg     rms          rms(c)
DAV:   1    -0.125700551194E+04   -0.27662E-02   -0.68781E-01 43128   0.116E+00    0.193E-01
DAV:   2    -0.125700710696E+04   -0.15950E-02   -0.18553E-02 50364   0.200E-01    0.122E-01
DAV:   3    -0.125700711409E+04   -0.71309E-05   -0.10700E-03 56388   0.525E-02    0.824E-02
DAV:   4    -0.125700705739E+04    0.56703E-04   -0.10027E-04 27264   0.260E-02
  19 F= -.12570071E+04 E0= -.12570071E+04  d E =-.439933E-02  mag=    39.9997
       N       E                     dE             d eps       ncg     rms          rms(c)
DAV:   1    -0.125697602287E+04    0.31091E-01   -0.19933E+01 43008   0.624E+00    0.103E+00
DAV:   2    -0.125702814985E+04   -0.52127E-01   -0.55717E-01 48108   0.108E+00    0.541E-01
DAV:   3    -0.125702878155E+04   -0.63169E-03   -0.24856E-02 60624   0.240E-01    0.363E-01
DAV:   4    -0.125702733292E+04    0.14486E-02   -0.50443E-03 62592   0.135E-01    0.223E-01
DAV:   5    -0.125702668185E+04    0.65107E-03   -0.28388E-03 64080   0.123E-01    0.138E-01
DAV:   6    -0.125702675914E+04   -0.77287E-04   -0.15687E-03 52536   0.612E-02    0.949E-02
DAV:   7    -0.125702668136E+04    0.77776E-04   -0.18194E-04 28548   0.357E-02
  20 F= -.12570267E+04 E0= -.12570267E+04  d E =-.196240E-01  mag=    39.9998
       N       E                     dE             d eps       ncg     rms          rms(c)
DAV:   1    -0.125702805812E+04   -0.12990E-02   -0.32827E-01 43176   0.797E-01    0.264E-01
DAV:   2    -0.125702844225E+04   -0.38413E-03   -0.13557E-02 58908   0.210E-01    0.265E-01
DAV:   3    -0.125702838903E+04    0.53221E-04   -0.25514E-03 59208   0.768E-02    0.170E-01
DAV:   4    -0.125702827170E+04    0.11732E-03   -0.10809E-03 56964   0.576E-02    0.140E-01
DAV:   5    -0.125702823739E+04    0.34309E-04   -0.40493E-04 44208   0.375E-02
  21 F= -.12570282E+04 E0= -.12570282E+04  d E =-.155603E-02  mag=    39.9998
       N       E                     dE             d eps       ncg     rms          rms(c)
DAV:   1    -0.125698242501E+04    0.45847E-01   -0.22234E+01 43032   0.660E+00    0.105E+00
DAV:   2    -0.125704399479E+04   -0.61570E-01   -0.63301E-01 48324   0.116E+00    0.618E-01
DAV:   3    -0.125704458884E+04   -0.59405E-03   -0.25449E-02 60228   0.246E-01    0.408E-01
DAV:   4    -0.125704309363E+04    0.14952E-02   -0.44131E-03 62772   0.130E-01    0.267E-01
DAV:   5    -0.125704204976E+04    0.10439E-02   -0.36636E-03 64248   0.167E-01    0.104E-01
DAV:   6    -0.125704231568E+04   -0.26592E-03   -0.33748E-03 52968   0.856E-02    0.120E-01
DAV:   7    -0.125704223332E+04    0.82360E-04   -0.22465E-04 30096   0.305E-02
  22 F= -.12570422E+04 E0= -.12570422E+04  d E =-.139959E-01  mag=    39.9998
       N       E                     dE             d eps       ncg     rms          rms(c)
DAV:   1    -0.125703514310E+04    0.71726E-02   -0.19447E+00 43008   0.195E+00    0.397E-01
DAV:   2    -0.125703927921E+04   -0.41361E-02   -0.59551E-02 55332   0.390E-01    0.354E-01
DAV:   3    -0.125703914318E+04    0.13603E-03   -0.45179E-03 59904   0.115E-01    0.195E-01
DAV:   4    -0.125703888830E+04    0.25488E-03   -0.74379E-04 53040   0.610E-02    0.154E-01
DAV:   5    -0.125703879189E+04    0.96402E-04   -0.59260E-04 50148   0.426E-02
  23 F= -.12570388E+04 E0= -.12570388E+04  d E =0.344143E-02  mag=    39.9999
       N       E                     dE             d eps       ncg     rms          rms(c)
DAV:   1    -0.125703906873E+04   -0.18043E-03   -0.13536E+00 43008   0.162E+00    0.313E-01
DAV:   2    -0.125704236081E+04   -0.32921E-02   -0.41556E-02 55536   0.317E-01    0.309E-01
DAV:   3    -0.125704224626E+04    0.11454E-03   -0.32340E-03 59748   0.910E-02    0.193E-01
DAV:   4    -0.125704203003E+04    0.21624E-03   -0.10714E-03 55776   0.653E-02    0.159E-01
DAV:   5    -0.125704198335E+04    0.46680E-04   -0.58042E-04 48900   0.413E-02
  24 F= -.12570420E+04 E0= -.12570420E+04  d E =-.319145E-02  mag=    39.9999
       N       E                     dE             d eps       ncg     rms          rms(c)
DAV:   1    -0.125704262209E+04   -0.59206E-03   -0.13160E-01 43248   0.489E-01    0.133E-01
DAV:   2    -0.125704297430E+04   -0.35221E-03   -0.58697E-03 53832   0.134E-01    0.177E-01
DAV:   3    -0.125704293410E+04    0.40201E-04   -0.55427E-04 45420   0.400E-02
  25 F= -.12570429E+04 E0= -.12570429E+04  d E =-.950749E-03  mag=    39.9999
       N       E                     dE             d eps       ncg     rms          rms(c)
DAV:   1    -0.125704373484E+04   -0.76054E-03   -0.32344E-01 43080   0.803E-01    0.222E-01
DAV:   2    -0.125704423020E+04   -0.49536E-03   -0.10898E-02 56052   0.161E-01    0.133E-01
DAV:   3    -0.125704414010E+04    0.90103E-04   -0.90947E-04 53580   0.663E-02
  26 F= -.12570441E+04 E0= -.12570441E+04  d E =-.120600E-02  mag=    39.9999
       N       E                     dE             d eps       ncg     rms          rms(c)
DAV:   1    -0.125704427404E+04   -0.43836E-04   -0.38034E-03 45276   0.917E-02    0.601E-02
DAV:   2    -0.125704423016E+04    0.43876E-04   -0.34215E-04 37800   0.381E-02
  27 F= -.12570442E+04 E0= -.12570442E+04  d E =-.900632E-04  mag=    39.9999
       N       E                     dE             d eps       ncg     rms          rms(c)
DAV:   1    -0.125704501721E+04   -0.74318E-03   -0.20382E-01 43032   0.633E-01    0.164E-01
DAV:   2    -0.125704528079E+04   -0.26358E-03   -0.65830E-03 57408   0.131E-01    0.144E-01
DAV:   3    -0.125704525177E+04    0.29024E-04   -0.56204E-04 48816   0.425E-02
  28 F= -.12570453E+04 E0= -.12570453E+04  d E =-.102161E-02  mag=    39.9999
       N       E                     dE             d eps       ncg     rms          rms(c)
DAV:   1    -0.125704561739E+04   -0.33660E-03   -0.11690E-01 43176   0.472E-01    0.109E-01
DAV:   2    -0.125704596592E+04   -0.34853E-03   -0.39801E-03 55920   0.105E-01    0.129E-01
DAV:   3    -0.125704594046E+04    0.25460E-04   -0.18009E-04 28092   0.294E-02
  29 F= -.12570459E+04 E0= -.12570459E+04  d E =-.688690E-03  mag=    39.9999
       N       E                     dE             d eps       ncg     rms          rms(c)
DAV:   1    -0.125704610222E+04   -0.13630E-03   -0.29585E-03 44016   0.785E-02    0.556E-02
DAV:   2    -0.125704608662E+04    0.15605E-04   -0.39972E-04 39636   0.307E-02
  30 F= -.12570461E+04 E0= -.12570461E+04  d E =-.146157E-03  mag=    39.9999
       N       E                     dE             d eps       ncg     rms          rms(c)
DAV:   1    -0.125704656369E+04   -0.46147E-03   -0.21201E-01 43080   0.640E-01    0.124E-01
DAV:   2    -0.125704699753E+04   -0.43384E-03   -0.64374E-03 51840   0.118E-01    0.746E-02
DAV:   3    -0.125704698071E+04    0.16813E-04   -0.29768E-04 36252   0.327E-02
  31 F= -.12570470E+04 E0= -.12570470E+04  d E =-.894096E-03  mag=    39.9999
       N       E                     dE             d eps       ncg     rms          rms(c)
DAV:   1    -0.125704668301E+04    0.31451E-03   -0.45691E-02 43416   0.307E-01    0.119E-01
DAV:   2    -0.125704665548E+04    0.27531E-04   -0.25922E-03 60360   0.875E-02    0.118E-01
DAV:   3    -0.125704660595E+04    0.49527E-04   -0.21804E-04 33348   0.312E-02
  32 F= -.12570466E+04 E0= -.12570466E+04  d E =0.374760E-03  mag=    39.9999
       N       E                     dE             d eps       ncg     rms          rms(c)
DAV:   1    -0.125704708748E+04   -0.43200E-03   -0.25855E-02 43536   0.237E-01    0.114E-01
DAV:   2    -0.125704698515E+04    0.10233E-03   -0.16644E-03 62088   0.748E-02    0.100E-01
DAV:   3    -0.125704694832E+04    0.36828E-04   -0.18813E-04 33828   0.294E-02
  33 F= -.12570469E+04 E0= -.12570469E+04  d E =-.342369E-03  mag=    40.0000
       N       E                     dE             d eps       ncg     rms          rms(c)
DAV:   1    -0.125704741596E+04   -0.43081E-03   -0.15035E-01 43032   0.540E-01    0.116E-01
DAV:   2    -0.125704775101E+04   -0.33506E-03   -0.42677E-03 54204   0.987E-02    0.957E-02
DAV:   3    -0.125704773584E+04    0.15178E-04   -0.24602E-04 31236   0.281E-02
  34 F= -.12570477E+04 E0= -.12570477E+04  d E =-.787513E-03  mag=    40.0000
       N       E                     dE             d eps       ncg     rms          rms(c)
DAV:   1    -0.125704804101E+04   -0.29000E-03   -0.39208E-02 43200   0.274E-01    0.529E-02
DAV:   2    -0.125704814040E+04   -0.99385E-04   -0.12205E-03 46056   0.533E-02    0.398E-02
DAV:   3    -0.125704813218E+04    0.82186E-05   -0.52956E-05 23664   0.144E-02
  35 F= -.12570481E+04 E0= -.12570481E+04  d E =-.396341E-03  mag=    40.0000
       N       E                     dE             d eps       ncg     rms          rms(c)
DAV:   1    -0.125704812139E+04    0.19002E-04   -0.52805E-05 23652   0.144E-02    0.208E-02
DAV:   2    -0.125704812190E+04   -0.50575E-06   -0.27102E-05 23412   0.104E-02
  36 F= -.12570481E+04 E0= -.12570481E+04  d E =0.102772E-04  mag=    40.0000
       N       E                     dE             d eps       ncg     rms          rms(c)
DAV:   1    -0.125704885773E+04   -0.73633E-03   -0.12685E-01 43632   0.507E-01    0.178E-01
DAV:   2    -0.125704871506E+04    0.14267E-03   -0.50696E-03 56328   0.113E-01    0.126E-01
DAV:   3    -0.125704866766E+04    0.47393E-04   -0.50768E-04 45468   0.483E-02
  37 F= -.12570487E+04 E0= -.12570487E+04  d E =-.545764E-03  mag=    40.0000
       N       E                     dE             d eps       ncg     rms          rms(c)
DAV:   1    -0.125704911723E+04   -0.40217E-03   -0.51464E-02 43104   0.316E-01    0.884E-02
DAV:   2    -0.125704920327E+04   -0.86043E-04   -0.20166E-03 62136   0.832E-02    0.109E-01
DAV:   3    -0.125704918701E+04    0.16259E-04   -0.16528E-04 26652   0.264E-02
  38 F= -.12570492E+04 E0= -.12570492E+04  d E =-.519349E-03  mag=    40.0000
       N       E                     dE             d eps       ncg     rms          rms(c)
DAV:   1    -0.125704953477E+04   -0.33149E-03   -0.38320E-02 43440   0.280E-01    0.107E-01
DAV:   2    -0.125704953963E+04   -0.48596E-05   -0.18713E-03 58716   0.697E-02    0.840E-02
DAV:   3    -0.125704949759E+04    0.42037E-04   -0.16978E-04 32196   0.297E-02
  39 F= -.12570495E+04 E0= -.12570495E+04  d E =-.310576E-03  mag=    40.0000
       N       E                     dE             d eps       ncg     rms          rms(c)
DAV:   1    -0.125704988597E+04   -0.34634E-03   -0.11605E-01 43032   0.477E-01    0.832E-02
DAV:   2    -0.125705016174E+04   -0.27577E-03   -0.31727E-03 52020   0.824E-02    0.493E-02
DAV:   3    -0.125705015505E+04    0.66850E-05   -0.10947E-04 25380   0.219E-02
  40 F= -.12570502E+04 E0= -.12570502E+04  d E =-.657461E-03  mag=    40.0000
       N       E                     dE             d eps       ncg     rms          rms(c)
DAV:   1    -0.125704995684E+04    0.20489E-03   -0.10957E-02 43200   0.147E-01    0.465E-02
DAV:   2    -0.125704996975E+04   -0.12906E-04   -0.41722E-04 37200   0.382E-02
  41 F= -.12570500E+04 E0= -.12570500E+04  d E =0.185301E-03  mag=    40.0000
       N       E                     dE             d eps       ncg     rms          rms(c)
DAV:   1    -0.125705033621E+04   -0.37937E-03   -0.17844E-01 43056   0.593E-01    0.103E-01
DAV:   2    -0.125705076037E+04   -0.42416E-03   -0.52637E-03 51972   0.110E-01    0.716E-02
DAV:   3    -0.125705075172E+04    0.86545E-05   -0.14778E-04 25392   0.289E-02
  42 F= -.12570508E+04 E0= -.12570508E+04  d E =-.781970E-03  mag=    40.0000
       N       E                     dE             d eps       ncg     rms          rms(c)
DAV:   1    -0.125705116770E+04   -0.40732E-03   -0.66093E-02 43104   0.358E-01    0.808E-02
DAV:   2    -0.125705127423E+04   -0.10653E-03   -0.19858E-03 55380   0.660E-02    0.577E-02
DAV:   3    -0.125705124995E+04    0.24278E-04   -0.10435E-04 25596   0.228E-02
  43 F= -.12570512E+04 E0= -.12570512E+04  d E =-.498228E-03  mag=    40.0000
       N       E                     dE             d eps       ncg     rms          rms(c)
DAV:   1    -0.125705151883E+04   -0.24460E-03   -0.47843E-02 43128   0.304E-01    0.528E-02
DAV:   2    -0.125705163344E+04   -0.11461E-03   -0.13062E-03 46788   0.536E-02    0.408E-02
DAV:   3    -0.125705162685E+04    0.65984E-05   -0.51918E-05 23508   0.147E-02
  44 F= -.12570516E+04 E0= -.12570516E+04  d E =-.376898E-03  mag=    40.0000
       N       E                     dE             d eps       ncg     rms          rms(c)
DAV:   1    -0.125705198995E+04   -0.35650E-03   -0.18574E-01 43008   0.601E-01    0.113E-01
DAV:   2    -0.125705241817E+04   -0.42822E-03   -0.51458E-03 51444   0.105E-01    0.704E-02
DAV:   3    -0.125705241186E+04    0.63148E-05   -0.28951E-04 33168   0.317E-02
  45 F= -.12570524E+04 E0= -.12570524E+04  d E =-.785011E-03  mag=    40.0000
       N       E                     dE             d eps       ncg     rms          rms(c)
DAV:   1    -0.125705221953E+04    0.19864E-03   -0.99574E-03 43200   0.143E-01    0.505E-02
DAV:   2    -0.125705222569E+04   -0.61542E-05   -0.49348E-04 44760   0.429E-02
  46 F= -.12570522E+04 E0= -.12570522E+04  d E =0.186171E-03  mag=    40.0000
       N       E                     dE             d eps       ncg     rms          rms(c)
DAV:   1    -0.125705250007E+04   -0.28054E-03   -0.13695E-01 43104   0.517E-01    0.760E-02
DAV:   2    -0.125705285578E+04   -0.35570E-03   -0.38301E-03 47640   0.897E-02    0.524E-02
DAV:   3    -0.125705285261E+04    0.31635E-05   -0.11080E-04 23952   0.197E-02
  47 F= -.12570529E+04 E0= -.12570529E+04  d E =-.626926E-03  mag=    40.0000
       N       E                     dE             d eps       ncg     rms          rms(c)
DAV:   1    -0.125705320230E+04   -0.34652E-03   -0.45881E-02 43104   0.301E-01    0.823E-02
DAV:   2    -0.125705324899E+04   -0.46694E-04   -0.15039E-03 56736   0.609E-02    0.607E-02
DAV:   3    -0.125705323250E+04    0.16489E-04   -0.10922E-04 28188   0.228E-02
  48 F= -.12570532E+04 E0= -.12570532E+04  d E =-.379889E-03  mag=    40.0000
       N       E                     dE             d eps       ncg     rms          rms(c)
DAV:   1    -0.125705344264E+04   -0.19365E-03   -0.23902E-01 43008   0.680E-01    0.115E-01
DAV:   2    -0.125705400824E+04   -0.56560E-03   -0.66521E-03 46824   0.116E-01    0.599E-02
DAV:   3    -0.125705399159E+04    0.16649E-04   -0.18709E-04 31692   0.288E-02
  49 F= -.12570540E+04 E0= -.12570540E+04  d E =-.759093E-03  mag=    40.0000
       N       E                     dE             d eps       ncg     rms          rms(c)
DAV:   1    -0.125705419124E+04   -0.18299E-03   -0.17859E-02 43152   0.184E-01    0.449E-02
DAV:   2    -0.125705420978E+04   -0.18547E-04   -0.56275E-04 40920   0.367E-02
  50 F= -.12570542E+04 E0= -.12570542E+04  d E =-.218190E-03  mag=    40.0000
       N       E                     dE             d eps       ncg     rms          rms(c)
DAV:   1    -0.125705413031E+04    0.60924E-04   -0.44607E-01 43008   0.928E-01    0.162E-01
DAV:   2    -0.125705524490E+04   -0.11146E-02   -0.12227E-02 49872   0.163E-01    0.990E-02
DAV:   3    -0.125705526006E+04   -0.15156E-04   -0.74859E-04 52524   0.404E-02
  51 F= -.12570553E+04 E0= -.12570553E+04  d E =-.105027E-02  mag=    40.0000
       N       E                     dE             d eps       ncg     rms          rms(c)
DAV:   1    -0.125705484318E+04    0.40172E-03   -0.39168E-02 43056   0.277E-01    0.697E-02
DAV:   2    -0.125705492371E+04   -0.80527E-04   -0.13768E-03 54636   0.615E-02    0.265E-02
DAV:   3    -0.125705493690E+04   -0.13192E-04   -0.14877E-04 25188   0.198E-02
  52 F= -.12570549E+04 E0= -.12570549E+04  d E =0.323156E-03  mag=    40.0000
       N       E                     dE             d eps       ncg     rms          rms(c)
DAV:   1    -0.125705492572E+04   -0.20139E-05   -0.16450E-04 25128   0.208E-02    0.209E-02
DAV:   2    -0.125705492464E+04    0.10825E-05   -0.23638E-05 22692   0.115E-02
  53 F= -.12570549E+04 E0= -.12570549E+04  d E =0.122602E-04  mag=    40.0000
       N       E                     dE             d eps       ncg     rms          rms(c)
DAV:   1    -0.125705533961E+04   -0.41389E-03   -0.20950E-01 43032   0.642E-01    0.158E-01
DAV:   2    -0.125705565161E+04   -0.31200E-03   -0.68023E-03 52836   0.123E-01    0.991E-02
DAV:   3    -0.125705562192E+04    0.29691E-04   -0.51933E-04 43068   0.475E-02
  54 F= -.12570556E+04 E0= -.12570556E+04  d E =-.697281E-03  mag=    40.0000
       N       E                     dE             d eps       ncg     rms          rms(c)
DAV:   1    -0.125705582086E+04   -0.16925E-03   -0.14782E-02 44280   0.179E-01    0.864E-02
DAV:   2    -0.125705575678E+04    0.64079E-04   -0.96690E-04 54360   0.565E-02
  55 F= -.12570558E+04 E0= -.12570558E+04  d E =-.134863E-03  mag=    40.0000
       N       E                     dE             d eps       ncg     rms          rms(c)
DAV:   1    -0.125705594397E+04   -0.12310E-03   -0.41126E-02 43104   0.281E-01    0.719E-02
DAV:   2    -0.125705601289E+04   -0.68924E-04   -0.12051E-03 53892   0.563E-02    0.511E-02
DAV:   3    -0.125705601041E+04    0.24784E-05   -0.10603E-04 25116   0.170E-02
  56 F= -.12570560E+04 E0= -.12570560E+04  d E =-.253628E-03  mag=    40.0000
       N       E                     dE             d eps       ncg     rms          rms(c)
DAV:   1    -0.125705610833E+04   -0.95441E-04   -0.38313E-03 43476   0.869E-02    0.281E-02
DAV:   2    -0.125705610655E+04    0.17856E-05   -0.10954E-04 23796   0.190E-02
  57 F= -.12570561E+04 E0= -.12570561E+04  d E =-.961341E-04  mag=    40.0000
       N       E                     dE             d eps       ncg     rms          rms(c)
DAV:   1    -0.125705610639E+04    0.19433E-05   -0.28254E-04 26544   0.262E-02    0.178E-02
DAV:   2    -0.125705610670E+04   -0.31490E-06   -0.25659E-05 22584   0.117E-02
  58 F= -.12570561E+04 E0= -.12570561E+04  d E =-.157204E-06  mag=    40.0000
       N       E                     dE             d eps       ncg     rms          rms(c)
DAV:   1    -0.125705623450E+04   -0.12812E-03   -0.69720E-02 43080   0.367E-01    0.632E-02
DAV:   2    -0.125705641829E+04   -0.18378E-03   -0.21885E-03 52068   0.722E-02    0.615E-02
DAV:   3    -0.125705641261E+04    0.56817E-05   -0.86481E-05 25008   0.189E-02
  59 F= -.12570564E+04 E0= -.12570564E+04  d E =-.305903E-03  mag=    40.0000
       N       E                     dE             d eps       ncg     rms          rms(c)
DAV:   1    -0.125705648913E+04   -0.70842E-04   -0.15461E-03 48552   0.645E-02    0.697E-02
DAV:   2    -0.125705642658E+04    0.62551E-04   -0.39973E-04 40740   0.387E-02
  60 F= -.12570564E+04 E0= -.12570564E+04  d E =-.139727E-04  mag=    40.0000
       N       E                     dE             d eps       ncg     rms          rms(c)
DAV:   1    -0.125705662666E+04   -0.13753E-03   -0.51177E-02 43080   0.312E-01    0.754E-02
DAV:   2    -0.125705673623E+04   -0.10956E-03   -0.16719E-03 57468   0.658E-02    0.750E-02
DAV:   3    -0.125705672560E+04    0.10622E-04   -0.12866E-04 25668   0.214E-02
  61 F= -.12570567E+04 E0= -.12570567E+04  d E =-.299024E-03  mag=    40.0000
       N       E                     dE             d eps       ncg     rms          rms(c)
DAV:   1    -0.125705685501E+04   -0.11878E-03   -0.34329E-02 43104   0.257E-01    0.544E-02
DAV:   2    -0.125705695517E+04   -0.10016E-03   -0.11806E-03 51456   0.544E-02    0.589E-02
DAV:   3    -0.125705694744E+04    0.77331E-05   -0.52173E-05 22956   0.170E-02
  62 F= -.12570569E+04 E0= -.12570569E+04  d E =-.221835E-03  mag=    40.0000
       N       E                     dE             d eps       ncg     rms          rms(c)
DAV:   1    -0.125705713893E+04   -0.18376E-03   -0.35317E-02 43128   0.262E-01    0.554E-02
DAV:   2    -0.125705720236E+04   -0.63428E-04   -0.10016E-03 45792   0.452E-02    0.328E-02
DAV:   3    -0.125705719403E+04    0.83231E-05   -0.40782E-05 23544   0.153E-02
  63 F= -.12570572E+04 E0= -.12570572E+04  d E =-.246595E-03  mag=    40.0000
       N       E                     dE             d eps       ncg     rms          rms(c)
DAV:   1    -0.125705739765E+04   -0.19529E-03   -0.54463E-02 43080   0.322E-01    0.515E-02
DAV:   2    -0.125705751539E+04   -0.11774E-03   -0.14565E-03 47484   0.538E-02    0.341E-02
DAV:   3    -0.125705750943E+04    0.59592E-05   -0.58226E-05 22968   0.145E-02
  64 F= -.12570575E+04 E0= -.12570575E+04  d E =-.315393E-03  mag=    40.0000
       N       E                     dE             d eps       ncg     rms          rms(c)
DAV:   1    -0.125705759771E+04   -0.82326E-04   -0.80563E-03 43248   0.124E-01    0.263E-02
DAV:   2    -0.125705761230E+04   -0.14586E-04   -0.20766E-04 25704   0.242E-02
  65 F= -.12570576E+04 E0= -.12570576E+04  d E =-.102871E-03  mag=    40.0000
       N       E                     dE             d eps       ncg     rms          rms(c)
DAV:   1    -0.125705777677E+04   -0.17906E-03   -0.45147E-02 43080   0.292E-01    0.646E-02
DAV:   2    -0.125705789404E+04   -0.11727E-03   -0.12523E-03 52380   0.534E-02    0.435E-02
DAV:   3    -0.125705789519E+04   -0.11419E-05   -0.74164E-05 24240   0.149E-02
  66 F= -.12570579E+04 E0= -.12570579E+04  d E =-.282888E-03  mag=    40.0000
       N       E                     dE             d eps       ncg     rms          rms(c)
DAV:   1    -0.125705784970E+04    0.44348E-04   -0.11911E-03 39792   0.476E-02    0.228E-02
DAV:   2    -0.125705785315E+04   -0.34579E-05   -0.50774E-05 22188   0.153E-02
  67 F= -.12570579E+04 E0= -.12570579E+04  d E =0.420315E-04  mag=    40.0000
       N       E                     dE             d eps       ncg     rms          rms(c)
DAV:   1    -0.125705798897E+04   -0.13927E-03   -0.67534E-02 43128   0.360E-01    0.546E-02
DAV:   2    -0.125705814948E+04   -0.16051E-03   -0.19457E-03 47988   0.642E-02    0.407E-02
DAV:   3    -0.125705814399E+04    0.54911E-05   -0.55384E-05 24108   0.149E-02
  68 F= -.12570581E+04 E0= -.12570581E+04  d E =-.290832E-03  mag=    40.0000
       N       E                     dE             d eps       ncg     rms          rms(c)
DAV:   1    -0.125705821043E+04   -0.60953E-04   -0.16593E-03 42480   0.576E-02    0.320E-02
DAV:   2    -0.125705819590E+04    0.14528E-04   -0.12569E-04 25056   0.225E-02
  69 F= -.12570582E+04 E0= -.12570582E+04  d E =-.519166E-04  mag=    40.0000
       N       E                     dE             d eps       ncg     rms          rms(c)
DAV:   1    -0.125705843649E+04   -0.22606E-03   -0.53161E-02 43128   0.323E-01    0.991E-02
DAV:   2    -0.125705846453E+04   -0.28040E-04   -0.18679E-03 55032   0.657E-02    0.662E-02
DAV:   3    -0.125705845206E+04    0.12471E-04   -0.14924E-04 29772   0.264E-02
  70 F= -.12570585E+04 E0= -.12570585E+04  d E =-.256154E-03  mag=    40.0000
       N       E                     dE             d eps       ncg     rms          rms(c)
DAV:   1    -0.125705861798E+04   -0.15345E-03   -0.17525E-02 43344   0.187E-01    0.578E-02
DAV:   2    -0.125705862449E+04   -0.65158E-05   -0.67312E-04 50376   0.441E-02
  71 F= -.12570586E+04 E0= -.12570586E+04  d E =-.172436E-03  mag=    40.0000
       N       E                     dE             d eps       ncg     rms          rms(c)
DAV:   1    -0.125705875223E+04   -0.13425E-03   -0.16371E-02 43176   0.178E-01    0.732E-02
DAV:   2    -0.125705874115E+04    0.11073E-04   -0.52266E-04 45804   0.420E-02
  72 F= -.12570587E+04 E0= -.12570587E+04  d E =-.116661E-03  mag=    40.0000
