       N       E                     dE             d eps       ncg     rms          rms(c)
DAV:   1     0.110814044033E+05    0.11081E+05   -0.39376E+05 21504   0.125E+03
DAV:   2     0.103037426439E+04   -0.10051E+05   -0.92511E+04 22200   0.350E+02
DAV:   3    -0.142169181647E+04   -0.24521E+04   -0.23706E+04 24324   0.180E+02
DAV:   4    -0.164770878159E+04   -0.22602E+03   -0.22235E+03 32448   0.608E+01
DAV:   5    -0.165659707062E+04   -0.88883E+01   -0.87605E+01 33768   0.139E+01
DAV:   6    -0.165700904247E+04   -0.41197E+00   -0.40809E+00 34092   0.256E+00
DAV:   7    -0.165703376628E+04   -0.24724E-01   -0.24609E-01 34104   0.634E-01
DAV:   8    -0.165703555274E+04   -0.17865E-02   -0.17823E-02 31788   0.145E-01
DAV:   9    -0.165703569540E+04   -0.14267E-03   -0.14246E-03 22164   0.424E-02
DAV:  10    -0.165703570817E+04   -0.12769E-04   -0.12740E-04 18192   0.160E-02
DAV:  11    -0.165703571063E+04   -0.24566E-05   -0.24437E-05 16728   0.997E-03
DAV:  12    -0.165703571191E+04   -0.12784E-05   -0.12712E-05 16296   0.719E-03    0.162E+02
DAV:  13    -0.126006826161E+04    0.39697E+03   -0.25200E+03 31812   0.834E+01    0.128E+02
DAV:  14    -0.143763936365E+04   -0.17757E+03   -0.46295E+03 35652   0.136E+02    0.177E+02
DAV:  15    -0.133941959243E+04    0.98220E+02   -0.12978E+03 34032   0.874E+01    0.721E+01
DAV:  16    -0.131866407254E+04    0.20756E+02   -0.27122E+02 34704   0.597E+01    0.781E+01
DAV:  17    -0.130159144793E+04    0.17073E+02   -0.11083E+02 31152   0.149E+01    0.603E+01
DAV:  18    -0.129558118203E+04    0.60103E+01   -0.11316E+02 31428   0.198E+01    0.100E+02
DAV:  19    -0.129860621814E+04   -0.30250E+01   -0.36306E+01 31944   0.248E+01    0.479E+01
DAV:  20    -0.125734626657E+04    0.41260E+02   -0.87713E+01 32280   0.178E+01    0.210E+01
DAV:  21    -0.125752567319E+04   -0.17941E+00   -0.27117E+01 31656   0.689E+00    0.171E+01
DAV:  22    -0.125561185073E+04    0.19138E+01   -0.36720E+00 31728   0.326E+00    0.140E+01
DAV:  23    -0.125073416858E+04    0.48777E+01   -0.19519E+00 37344   0.608E+00    0.110E+01
DAV:  24    -0.124524276184E+04    0.54914E+01   -0.56452E+00 36264   0.852E+00    0.670E+00
DAV:  25    -0.124403657596E+04    0.12062E+01   -0.94053E+00 31140   0.491E+00    0.492E+00
DAV:  26    -0.124402478117E+04    0.11795E-01   -0.21689E+00 27348   0.200E+00    0.501E+00
DAV:  27    -0.124374140235E+04    0.28338E+00   -0.23519E-01 30516   0.843E-01    0.481E+00
DAV:  28    -0.124357905684E+04    0.16235E+00   -0.66093E-01 32520   0.177E+00    0.359E+00
DAV:  29    -0.124328635026E+04    0.29271E+00   -0.43415E-01 32616   0.133E+00    0.339E+00
DAV:  30    -0.124317344725E+04    0.11290E+00   -0.23458E-01 29964   0.858E-01    0.350E+00
DAV:  31    -0.124313350880E+04    0.39938E-01   -0.16167E-01 31884   0.919E-01    0.287E+00
DAV:  32    -0.124307503856E+04    0.58470E-01   -0.31464E-02 33552   0.489E-01    0.268E+00
DAV:  33    -0.124307835461E+04   -0.33160E-02   -0.24805E-02 30528   0.250E-01    0.235E+00
DAV:  34    -0.124309352548E+04   -0.15171E-01   -0.10495E-02 29136   0.130E-01    0.239E+00
DAV:  35    -0.124307144896E+04    0.22077E-01   -0.88999E-03 32280   0.197E-01    0.244E+00
DAV:  36    -0.124307970483E+04   -0.82559E-02   -0.10857E-03 26748   0.866E-02    0.240E+00
DAV:  37    -0.124309899043E+04   -0.19286E-01   -0.45564E-02 32268   0.299E-01    0.261E+00
DAV:  38    -0.124310338278E+04   -0.43923E-02   -0.81849E-03 26508   0.124E-01    0.262E+00
DAV:  39    -0.124310404513E+04   -0.66235E-03   -0.38721E-04 20976   0.289E-02    0.263E+00
DAV:  40    -0.124310070599E+04    0.33391E-02   -0.50235E-04 23064   0.513E-02    0.267E+00
DAV:  41    -0.124313719378E+04   -0.36488E-01   -0.23751E-02 36228   0.394E-01    0.249E+00
DAV:  42    -0.124319137878E+04   -0.54185E-01   -0.57219E-02 32364   0.468E-01    0.255E+00
DAV:  43    -0.124318162681E+04    0.97520E-02   -0.15646E-02 25608   0.223E-01    0.264E+00
DAV:  44    -0.124324841363E+04   -0.66787E-01   -0.26405E-02 34920   0.576E-01    0.293E+00
DAV:  45    -0.124330055568E+04   -0.52142E-01   -0.46553E-02 33264   0.584E-01    0.287E+00
DAV:  46    -0.124328462516E+04    0.15931E-01   -0.32921E-02 28848   0.343E-01    0.249E+00
DAV:  47    -0.124330053934E+04   -0.15914E-01   -0.41697E-02 33996   0.456E-01    0.213E+00
DAV:  48    -0.124326614532E+04    0.34394E-01   -0.42088E-02 31236   0.559E-01    0.205E+00
DAV:  49    -0.124327374969E+04   -0.76044E-02   -0.21616E-02 27444   0.182E-01    0.204E+00
DAV:  50    -0.124327268065E+04    0.10690E-02   -0.19887E-03 27108   0.728E-02    0.203E+00
DAV:  51    -0.124327461250E+04   -0.19318E-02   -0.17791E-04 17724   0.481E-02    0.198E+00
DAV:  52    -0.124326850875E+04    0.61037E-02   -0.41791E-03 34884   0.132E-01    0.197E+00
DAV:  53    -0.124328411128E+04   -0.15603E-01   -0.85858E-02 31356   0.439E-01    0.238E+00
DAV:  54    -0.124332180969E+04   -0.37698E-01   -0.62532E-02 33216   0.826E-01    0.245E+00
DAV:  55    -0.124332361878E+04   -0.18091E-02   -0.31146E-02 25932   0.257E-01    0.258E+00
DAV:  56    -0.124332417940E+04   -0.56063E-03   -0.18383E-03 30912   0.533E-02    0.257E+00
DAV:  57    -0.124332622654E+04   -0.20471E-02   -0.43621E-04 19764   0.330E-02    0.262E+00
DAV:  58    -0.124335757043E+04   -0.31344E-01   -0.44117E-02 34272   0.433E-01    0.348E+00
DAV:  59    -0.124335626374E+04    0.13067E-02   -0.18394E-02 29472   0.225E-01    0.318E+00
DAV:  60    -0.124335484624E+04    0.14175E-02   -0.78475E-03 31236   0.149E-01    0.316E+00
DAV:  61    -0.124334920371E+04    0.56425E-02   -0.37699E-03 29004   0.627E-02    0.284E+00
DAV:  62    -0.124333963316E+04    0.95706E-02   -0.47807E-03 29172   0.964E-02    0.246E+00
DAV:  63    -0.124335343855E+04   -0.13805E-01   -0.25866E-02 35484   0.559E-01    0.204E+00
DAV:  64    -0.124335225875E+04    0.11798E-02   -0.12105E-02 29328   0.220E-01    0.211E+00
DAV:  65    -0.124334819332E+04    0.40654E-02   -0.62263E-03 32484   0.126E-01    0.186E+00
DAV:  66    -0.124334624781E+04    0.19455E-02   -0.28004E-03 25536   0.663E-02    0.167E+00
DAV:  67    -0.124334386399E+04    0.23838E-02   -0.60938E-03 32532   0.112E-01    0.143E+00
DAV:  68    -0.124334481384E+04   -0.94985E-03   -0.72773E-03 32580   0.146E-01    0.148E+00
DAV:  69    -0.124334636317E+04   -0.15493E-02   -0.35842E-03 31164   0.124E-01    0.144E+00
DAV:  70    -0.124334809548E+04   -0.17323E-02   -0.21274E-03 27852   0.786E-02    0.144E+00
DAV:  71    -0.124334823642E+04   -0.14094E-03   -0.54562E-04 21408   0.342E-02    0.148E+00
DAV:  72    -0.124334880194E+04   -0.56552E-03   -0.50388E-05 17172   0.409E-02    0.146E+00
DAV:  73    -0.124334871141E+04    0.90529E-04   -0.33097E-04 18840   0.309E-02
   1 F= -.12433487E+04 E0= -.12432322E+04  d E =-.124335E+04  mag=    40.0269
       N       E                     dE             d eps       ncg     rms          rms(c)
DAV:   1    -0.124527406434E+04   -0.19253E+01   -0.24391E+03 21504   0.683E+01    0.216E+01
DAV:   2    -0.125386260695E+04   -0.85885E+01   -0.16462E+02 32760   0.263E+01    0.272E+01
DAV:   3    -0.125311849023E+04    0.74412E+00   -0.25145E+01 29928   0.800E+00    0.173E+01
DAV:   4    -0.125141863020E+04    0.16999E+01   -0.37771E+00 32796   0.364E+00    0.124E+01
DAV:   5    -0.125137879092E+04    0.39839E-01   -0.49983E+00 32016   0.390E+00    0.578E+00
DAV:   6    -0.125115924307E+04    0.21955E+00   -0.78183E-01 31872   0.212E+00    0.337E+00
DAV:   7    -0.125118597945E+04   -0.26736E-01   -0.10655E+00 32064   0.180E+00    0.228E+00
DAV:   8    -0.125119626751E+04   -0.10288E-01   -0.13011E-01 30720   0.750E-01    0.103E+00
DAV:   9    -0.125120846785E+04   -0.12200E-01   -0.40559E-02 31284   0.320E-01    0.862E-01
DAV:  10    -0.125121097647E+04   -0.25086E-02   -0.10795E-02 30204   0.200E-01    0.550E-01
DAV:  11    -0.125121276850E+04   -0.17920E-02   -0.13934E-02 31524   0.220E-01    0.353E-01
DAV:  12    -0.125121532683E+04   -0.25583E-02   -0.58017E-03 31500   0.123E-01    0.244E-01
DAV:  13    -0.125121680085E+04   -0.14740E-02   -0.14865E-03 30012   0.639E-02    0.195E-01
DAV:  14    -0.125121790670E+04   -0.11058E-02   -0.12002E-03 28572   0.581E-02    0.120E-01
DAV:  15    -0.125121815701E+04   -0.25032E-03   -0.87995E-04 29988   0.458E-02    0.647E-02
DAV:  16    -0.125121822329E+04   -0.66279E-04   -0.14266E-04 14520   0.232E-02
   2 F= -.12512182E+04 E0= -.12512182E+04  d E =-.786951E+01  mag=    40.0111
       N       E                     dE             d eps       ncg     rms          rms(c)
DAV:   1    -0.125592072913E+04   -0.47026E+01   -0.21888E+02 21528   0.221E+01    0.146E+01
DAV:   2    -0.125408762177E+04    0.18331E+01   -0.22853E+01 30780   0.102E+01    0.162E+01
DAV:   3    -0.125346765851E+04    0.61996E+00   -0.57947E+00 30996   0.403E+00    0.881E+00
DAV:   4    -0.125334254474E+04    0.12511E+00   -0.17607E+00 32712   0.258E+00    0.710E+00
DAV:   5    -0.125325218945E+04    0.90355E-01   -0.46485E-01 31320   0.169E+00    0.332E+00
DAV:   6    -0.125321718000E+04    0.35009E-01   -0.37741E-01 32004   0.990E-01    0.103E+00
DAV:   7    -0.125321905125E+04   -0.18712E-02   -0.75508E-02 30744   0.549E-01    0.695E-01
DAV:   8    -0.125321808505E+04    0.96620E-03   -0.12467E-02 32064   0.315E-01    0.416E-01
DAV:   9    -0.125321807951E+04    0.55478E-05   -0.65319E-03 32292   0.153E-01    0.262E-01
DAV:  10    -0.125321786022E+04    0.21928E-03   -0.31968E-03 31764   0.106E-01    0.130E-01
DAV:  11    -0.125321774639E+04    0.11384E-03   -0.11287E-03 28560   0.569E-02    0.931E-02
DAV:  12    -0.125321774848E+04   -0.20957E-05   -0.27945E-04 16260   0.295E-02
   3 F= -.12532177E+04 E0= -.12532177E+04  d E =-.199953E+01  mag=    40.0070
       N       E                     dE             d eps       ncg     rms          rms(c)
DAV:   1    -0.125320798605E+04    0.97603E-02   -0.21384E+02 21528   0.202E+01    0.847E+00
DAV:   2    -0.125394773236E+04   -0.73975E+00   -0.11880E+01 29208   0.694E+00    0.974E+00
DAV:   3    -0.125382622200E+04    0.12151E+00   -0.15332E+00 27996   0.220E+00    0.585E+00
DAV:   4    -0.125374694126E+04    0.79281E-01   -0.68240E-01 31320   0.144E+00    0.413E+00
DAV:   5    -0.125371491702E+04    0.32024E-01   -0.18270E-01 28320   0.104E+00    0.179E+00
DAV:   6    -0.125371411087E+04    0.80615E-03   -0.16176E-01 30288   0.610E-01    0.754E-01
DAV:   7    -0.125371280422E+04    0.13066E-02   -0.38050E-02 31992   0.354E-01    0.533E-01
DAV:   8    -0.125371190093E+04    0.90329E-03   -0.69246E-03 31668   0.248E-01    0.298E-01
DAV:   9    -0.125371154644E+04    0.35449E-03   -0.40483E-03 31548   0.121E-01    0.156E-01
DAV:  10    -0.125371158838E+04   -0.41942E-04   -0.14897E-03 29436   0.583E-02    0.874E-02
DAV:  11    -0.125371153838E+04    0.49999E-04   -0.43460E-04 19728   0.346E-02
   4 F= -.12537115E+04 E0= -.12537115E+04  d E =-.493790E+00  mag=    40.0046
       N       E                     dE             d eps       ncg     rms          rms(c)
DAV:   1    -0.125399833738E+04   -0.28675E+00   -0.27863E+01 21504   0.736E+00    0.262E+00
DAV:   2    -0.125408148823E+04   -0.83151E-01   -0.14355E+00 29544   0.223E+00    0.342E+00
DAV:   3    -0.125406844540E+04    0.13043E-01   -0.13563E-01 28764   0.681E-01    0.258E+00
DAV:   4    -0.125405890856E+04    0.95368E-02   -0.29195E-02 30840   0.232E-01    0.215E+00
DAV:   5    -0.125405325842E+04    0.56501E-02   -0.32997E-02 29700   0.299E-01    0.111E+00
DAV:   6    -0.125404772478E+04    0.55336E-02   -0.51995E-02 32268   0.394E-01    0.428E-01
DAV:   7    -0.125404814163E+04   -0.41684E-03   -0.13527E-02 28356   0.168E-01    0.301E-01
DAV:   8    -0.125404803323E+04    0.10839E-03   -0.95994E-04 27300   0.573E-02    0.242E-01
DAV:   9    -0.125404794184E+04    0.91395E-04   -0.63498E-04 23292   0.463E-02
   5 F= -.12540479E+04 E0= -.12540479E+04  d E =-.336403E+00  mag=    40.0033
       N       E                     dE             d eps       ncg     rms          rms(c)
DAV:   1    -0.125426254009E+04   -0.21451E+00   -0.10198E+02 21504   0.143E+01    0.623E+00
DAV:   2    -0.125416450981E+04    0.98030E-01   -0.46818E+00 31212   0.406E+00    0.520E+00
DAV:   3    -0.125411484138E+04    0.49668E-01   -0.10875E+00 30444   0.178E+00    0.239E+00
DAV:   4    -0.125407257029E+04    0.42271E-01   -0.26892E-01 31872   0.871E-01    0.183E+00
DAV:   5    -0.125405823312E+04    0.14337E-01   -0.58502E-02 29280   0.496E-01    0.968E-01
DAV:   6    -0.125405419460E+04    0.40385E-02   -0.35021E-02 31980   0.308E-01    0.429E-01
DAV:   7    -0.125405430489E+04   -0.11029E-03   -0.10795E-02 30996   0.182E-01    0.215E-01
DAV:   8    -0.125405434606E+04   -0.41168E-04   -0.19146E-03 29316   0.814E-02    0.136E-01
DAV:   9    -0.125405434124E+04    0.48137E-05   -0.64132E-04 25176   0.512E-02
   6 F= -.12540543E+04 E0= -.12540543E+04  d E =-.639941E-02  mag=    40.0022
       N       E                     dE             d eps       ncg     rms          rms(c)
DAV:   1    -0.125401707390E+04    0.37272E-01   -0.14297E+02 21504   0.161E+01    0.668E+00
DAV:   2    -0.125430288734E+04   -0.28581E+00   -0.80406E+00 30588   0.525E+00    0.781E+00
DAV:   3    -0.125421339957E+04    0.89488E-01   -0.10792E+00 30216   0.185E+00    0.543E+00
DAV:   4    -0.125413786043E+04    0.75539E-01   -0.34875E-01 31128   0.817E-01    0.394E+00
DAV:   5    -0.125410403083E+04    0.33830E-01   -0.21966E-01 29436   0.811E-01    0.168E+00
DAV:   6    -0.125409448432E+04    0.95465E-02   -0.18592E-01 32772   0.850E-01    0.759E-01
DAV:   7    -0.125409359996E+04    0.88436E-03   -0.75567E-02 30672   0.506E-01    0.532E-01
DAV:   8    -0.125409275503E+04    0.84493E-03   -0.64511E-03 30948   0.187E-01    0.243E-01
DAV:   9    -0.125409272448E+04    0.30551E-04   -0.53402E-03 31128   0.116E-01    0.149E-01
DAV:  10    -0.125409271134E+04    0.13141E-04   -0.96543E-04 28620   0.740E-02
   7 F= -.12540927E+04 E0= -.12540927E+04  d E =-.383701E-01  mag=    40.0015
       N       E                     dE             d eps       ncg     rms          rms(c)
DAV:   1    -0.125439207445E+04   -0.29935E+00   -0.41570E+01 21504   0.819E+00    0.387E+00
DAV:   2    -0.125457403801E+04   -0.18196E+00   -0.25760E+00 28992   0.270E+00    0.467E+00
DAV:   3    -0.125453868118E+04    0.35357E-01   -0.30105E-01 29400   0.102E+00    0.335E+00
DAV:   4    -0.125451855757E+04    0.20124E-01   -0.86647E-02 29364   0.383E-01    0.259E+00
DAV:   5    -0.125450503212E+04    0.13525E-01   -0.59828E-02 29916   0.459E-01    0.111E+00
DAV:   6    -0.125450326596E+04    0.17662E-02   -0.74051E-02 31836   0.480E-01    0.521E-01
DAV:   7    -0.125450222358E+04    0.10424E-02   -0.26884E-02 29568   0.246E-01    0.317E-01
DAV:   8    -0.125450210591E+04    0.11767E-03   -0.24877E-03 29136   0.844E-02    0.204E-01
DAV:   9    -0.125450206946E+04    0.36455E-04   -0.16286E-03 30600   0.718E-02    0.116E-01
DAV:  10    -0.125450204635E+04    0.23103E-04   -0.52598E-04 22884   0.387E-02
   8 F= -.12545020E+04 E0= -.12545020E+04  d E =-.409335E+00  mag=    40.0010
       N       E                     dE             d eps       ncg     rms          rms(c)
DAV:   1    -0.125455524220E+04   -0.53173E-01   -0.11122E+01 21552   0.470E+00    0.937E-01
DAV:   2    -0.125458159969E+04   -0.26357E-01   -0.31767E-01 26112   0.874E-01    0.606E-01
DAV:   3    -0.125458094026E+04    0.65943E-03   -0.14477E-02 30708   0.226E-01    0.447E-01
DAV:   4    -0.125458016557E+04    0.77469E-03   -0.24572E-03 31212   0.835E-02    0.238E-01
DAV:   5    -0.125457952221E+04    0.64337E-03   -0.17016E-03 28476   0.726E-02    0.911E-02
DAV:   6    -0.125457949761E+04    0.24594E-04   -0.67654E-04 24300   0.483E-02
   9 F= -.12545795E+04 E0= -.12545795E+04  d E =-.774513E-01  mag=    40.0008
       N       E                     dE             d eps       ncg     rms          rms(c)
DAV:   1    -0.125446320794E+04    0.11631E+00   -0.11412E+02 21504   0.150E+01    0.274E+00
DAV:   2    -0.125477234687E+04   -0.30914E+00   -0.31473E+00 26568   0.272E+00    0.190E+00
DAV:   3    -0.125477179489E+04    0.55198E-03   -0.11401E-01 30312   0.559E-01    0.109E+00
DAV:   4    -0.125476394362E+04    0.78513E-02   -0.15440E-02 32112   0.249E-01    0.708E-01
DAV:   5    -0.125475844295E+04    0.55007E-02   -0.14269E-02 26052   0.222E-01    0.253E-01
DAV:   6    -0.125475894581E+04   -0.50286E-03   -0.76390E-03 30636   0.135E-01    0.144E-01
DAV:   7    -0.125475884361E+04    0.10220E-03   -0.15140E-03 29424   0.655E-02    0.102E-01
DAV:   8    -0.125475885699E+04   -0.13385E-04   -0.30593E-04 17928   0.348E-02
  10 F= -.12547589E+04 E0= -.12547589E+04  d E =-.179359E+00  mag=    40.0006
       N       E                     dE             d eps       ncg     rms          rms(c)
DAV:   1    -0.125466891706E+04    0.89927E-01   -0.83754E+01 21528   0.128E+01    0.201E+00
DAV:   2    -0.125486776174E+04   -0.19884E+00   -0.23331E+00 25440   0.231E+00    0.131E+00
DAV:   3    -0.125486400240E+04    0.37593E-02   -0.89861E-02 31380   0.501E-01    0.104E+00
DAV:   4    -0.125486007483E+04    0.39276E-02   -0.13686E-02 31980   0.214E-01    0.648E-01
DAV:   5    -0.125485593139E+04    0.41434E-02   -0.10222E-02 29412   0.219E-01    0.280E-01
DAV:   6    -0.125485630450E+04   -0.37311E-03   -0.76031E-03 28164   0.138E-01    0.159E-01
DAV:   7    -0.125485620816E+04    0.96344E-04   -0.13995E-03 28620   0.607E-02    0.904E-02
DAV:   8    -0.125485619359E+04    0.14565E-04   -0.20793E-04 14208   0.334E-02
  11 F= -.12548562E+04 E0= -.12548562E+04  d E =-.973366E-01  mag=    40.0004
       N       E                     dE             d eps       ncg     rms          rms(c)
DAV:   1    -0.125487403561E+04   -0.17827E-01   -0.67768E+00 21540   0.364E+00    0.811E-01
DAV:   2    -0.125489002547E+04   -0.15990E-01   -0.22764E-01 27048   0.745E-01    0.851E-01
DAV:   3    -0.125488898893E+04    0.10365E-02   -0.12025E-02 28416   0.195E-01    0.526E-01
DAV:   4    -0.125488794167E+04    0.10473E-02   -0.76644E-03 31260   0.136E-01    0.374E-01
DAV:   5    -0.125488776969E+04    0.17198E-03   -0.18265E-03 27312   0.744E-02    0.167E-01
DAV:   6    -0.125488769555E+04    0.74140E-04   -0.10374E-03 28896   0.520E-02    0.920E-02
DAV:   7    -0.125488770790E+04   -0.12349E-04   -0.25083E-04 16836   0.245E-02
  12 F= -.12548877E+04 E0= -.12548877E+04  d E =-.315143E-01  mag=    40.0003
       N       E                     dE             d eps       ncg     rms          rms(c)
DAV:   1    -0.125489384483E+04   -0.61493E-02   -0.85063E+00 21552   0.405E+00    0.599E-01
DAV:   2    -0.125491576424E+04   -0.21919E-01   -0.22495E-01 24480   0.711E-01    0.418E-01
DAV:   3    -0.125491593326E+04   -0.16902E-03   -0.89684E-03 32352   0.172E-01    0.348E-01
DAV:   4    -0.125491565020E+04    0.28306E-03   -0.79989E-04 25740   0.446E-02    0.218E-01
DAV:   5    -0.125491517095E+04    0.47926E-03   -0.62078E-04 23472   0.581E-02    0.961E-02
DAV:   6    -0.125491519472E+04   -0.23773E-04   -0.99032E-04 27396   0.493E-02
  13 F= -.12549152E+04 E0= -.12549152E+04  d E =-.274868E-01  mag=    40.0003
       N       E                     dE             d eps       ncg     rms          rms(c)
DAV:   1    -0.125492064896E+04   -0.54780E-02   -0.10117E+00 21636   0.138E+00    0.457E-01
DAV:   2    -0.125492404805E+04   -0.33991E-02   -0.29304E-02 26772   0.288E-01    0.308E-01
DAV:   3    -0.125492434661E+04   -0.29856E-03   -0.26275E-03 30324   0.113E-01    0.243E-01
DAV:   4    -0.125492430097E+04    0.45647E-04   -0.18773E-04 16608   0.238E-02
  14 F= -.12549243E+04 E0= -.12549243E+04  d E =-.910624E-02  mag=    40.0002
       N       E                     dE             d eps       ncg     rms          rms(c)
DAV:   1    -0.125493228904E+04   -0.79424E-02   -0.28666E+00 21672   0.235E+00    0.363E-01
DAV:   2    -0.125493949865E+04   -0.72096E-02   -0.75738E-02 25248   0.415E-01    0.269E-01
DAV:   3    -0.125493948958E+04    0.90762E-05   -0.32383E-03 30816   0.956E-02    0.147E-01
DAV:   4    -0.125493934035E+04    0.14923E-03   -0.31943E-04 18972   0.353E-02    0.110E-01
DAV:   5    -0.125493926798E+04    0.72369E-04   -0.42269E-04 20604   0.349E-02
  15 F= -.12549393E+04 E0= -.12549393E+04  d E =-.149670E-01  mag=    40.0002
       N       E                     dE             d eps       ncg     rms          rms(c)
DAV:   1    -0.125494632401E+04   -0.69837E-02   -0.46715E+00 21648   0.299E+00    0.520E-01
DAV:   2    -0.125495771434E+04   -0.11390E-01   -0.12448E-01 25248   0.525E-01    0.328E-01
DAV:   3    -0.125495788569E+04   -0.17136E-03   -0.61074E-03 30852   0.124E-01    0.199E-01
DAV:   4    -0.125495761375E+04    0.27195E-03   -0.78777E-04 25596   0.483E-02    0.129E-01
DAV:   5    -0.125495745712E+04    0.15663E-03   -0.59345E-04 23736   0.490E-02    0.580E-02
DAV:   6    -0.125495745410E+04    0.30148E-05   -0.17630E-04 14088   0.263E-02
  16 F= -.12549575E+04 E0= -.12549575E+04  d E =-.181861E-01  mag=    40.0002
       N       E                     dE             d eps       ncg     rms          rms(c)
DAV:   1    -0.125496411487E+04   -0.66577E-02   -0.29872E+00 21648   0.240E+00    0.420E-01
DAV:   2    -0.125497211977E+04   -0.80049E-02   -0.80200E-02 25056   0.421E-01    0.275E-01
DAV:   3    -0.125497220265E+04   -0.82881E-04   -0.31967E-03 30744   0.929E-02    0.178E-01
DAV:   4    -0.125497206081E+04    0.14183E-03   -0.39896E-04 20592   0.346E-02    0.114E-01
DAV:   5    -0.125497197273E+04    0.88083E-04   -0.43506E-04 20376   0.357E-02
  17 F= -.12549720E+04 E0= -.12549720E+04  d E =-.145186E-01  mag=    40.0001
       N       E                     dE             d eps       ncg     rms          rms(c)
DAV:   1    -0.125497756450E+04   -0.55037E-02   -0.11016E+00 21648   0.147E+00    0.326E-01
DAV:   2    -0.125497994443E+04   -0.23799E-02   -0.37468E-02 28560   0.333E-01    0.357E-01
DAV:   3    -0.125497974856E+04    0.19587E-03   -0.31643E-03 28548   0.105E-01    0.185E-01
DAV:   4    -0.125497965507E+04    0.93498E-04   -0.43541E-04 21840   0.440E-02
  18 F= -.12549797E+04 E0= -.12549797E+04  d E =-.768234E-02  mag=    40.0001
       N       E                     dE             d eps       ncg     rms          rms(c)
DAV:   1    -0.125498542848E+04   -0.56799E-02   -0.94683E-01 21696   0.135E+00    0.241E-01
DAV:   2    -0.125498759235E+04   -0.21639E-02   -0.24809E-02 25992   0.236E-01    0.133E-01
DAV:   3    -0.125498757838E+04    0.13972E-04   -0.14053E-03 28896   0.660E-02    0.772E-02
DAV:   4    -0.125498752431E+04    0.54069E-04   -0.11962E-04 13644   0.216E-02
  19 F= -.12549875E+04 E0= -.12549875E+04  d E =-.786924E-02  mag=    40.0001
       N       E                     dE             d eps       ncg     rms          rms(c)
DAV:   1    -0.125497233798E+04    0.15240E-01   -0.19450E+01 21648   0.611E+00    0.900E-01
DAV:   2    -0.125502095584E+04   -0.48618E-01   -0.50272E-01 23964   0.104E+00    0.480E-01
DAV:   3    -0.125502112223E+04   -0.16639E-03   -0.17799E-02 31884   0.192E-01    0.329E-01
DAV:   4    -0.125502036229E+04    0.75994E-03   -0.16498E-03 31392   0.745E-02    0.211E-01
DAV:   5    -0.125501973299E+04    0.62929E-03   -0.16097E-03 25452   0.734E-02    0.774E-02
DAV:   6    -0.125501979850E+04   -0.65506E-04   -0.79358E-04 25140   0.422E-02
  20 F= -.12550198E+04 E0= -.12550198E+04  d E =-.322742E-01  mag=    40.0001
       N       E                     dE             d eps       ncg     rms          rms(c)
DAV:   1    -0.125496739892E+04    0.52334E-01   -0.35911E+01 21696   0.830E+00    0.128E+00
DAV:   2    -0.125506038795E+04   -0.92989E-01   -0.93053E-01 23796   0.140E+00    0.714E-01
DAV:   3    -0.125506160088E+04   -0.12129E-02   -0.33000E-02 31836   0.265E-01    0.480E-01
DAV:   4    -0.125506030988E+04    0.12910E-02   -0.29074E-03 31512   0.885E-02    0.286E-01
DAV:   5    -0.125505904430E+04    0.12656E-02   -0.29908E-03 26448   0.108E-01    0.136E-01
DAV:   6    -0.125505919776E+04   -0.15346E-03   -0.16764E-03 27492   0.573E-02    0.641E-02
DAV:   7    -0.125505917721E+04    0.20554E-04   -0.17186E-04 13500   0.272E-02
  21 F= -.12550592E+04 E0= -.12550592E+04  d E =-.393787E-01  mag=    40.0001
       N       E                     dE             d eps       ncg     rms          rms(c)
DAV:   1    -0.125506019898E+04   -0.10012E-02   -0.20869E-01 21600   0.633E-01    0.213E-01
DAV:   2    -0.125506097126E+04   -0.77227E-03   -0.97755E-03 30204   0.176E-01    0.271E-01
DAV:   3    -0.125506088485E+04    0.86409E-04   -0.68351E-04 25296   0.550E-02
  22 F= -.12550609E+04 E0= -.12550609E+04  d E =-.170764E-02  mag=    40.0001
       N       E                     dE             d eps       ncg     rms          rms(c)
DAV:   1    -0.125506472919E+04   -0.37579E-02   -0.14622E+00 21696   0.168E+00    0.286E-01
DAV:   2    -0.125506842746E+04   -0.36983E-02   -0.39019E-02 24480   0.289E-01    0.154E-01
DAV:   3    -0.125506839134E+04    0.36127E-04   -0.15410E-03 29412   0.642E-02    0.935E-02
DAV:   4    -0.125506831244E+04    0.78898E-04   -0.23837E-04 17376   0.280E-02
  23 F= -.12550683E+04 E0= -.12550683E+04  d E =-.742759E-02  mag=    40.0000
       N       E                     dE             d eps       ncg     rms          rms(c)
DAV:   1    -0.125507187843E+04   -0.34871E-02   -0.18320E+00 21672   0.187E+00    0.309E-01
DAV:   2    -0.125507639097E+04   -0.45125E-02   -0.47727E-02 25116   0.329E-01    0.219E-01
DAV:   3    -0.125507640383E+04   -0.12859E-04   -0.20201E-03 30816   0.772E-02    0.130E-01
DAV:   4    -0.125507631841E+04    0.85415E-04   -0.15192E-04 14784   0.242E-02
  24 F= -.12550763E+04 E0= -.12550763E+04  d E =-.800597E-02  mag=    40.0000
       N       E                     dE             d eps       ncg     rms          rms(c)
DAV:   1    -0.125507514621E+04    0.12576E-02   -0.67706E-02 21660   0.354E-01    0.120E-01
DAV:   2    -0.125507533599E+04   -0.18978E-03   -0.42116E-03 28584   0.112E-01    0.171E-01
DAV:   3    -0.125507527876E+04    0.57228E-04   -0.33788E-04 19632   0.346E-02
  25 F= -.12550753E+04 E0= -.12550753E+04  d E =0.103965E-02  mag=    40.0000
       N       E                     dE             d eps       ncg     rms          rms(c)
DAV:   1    -0.125507789129E+04   -0.25553E-02   -0.20649E+00 21648   0.199E+00    0.342E-01
DAV:   2    -0.125508352093E+04   -0.56296E-02   -0.60221E-02 26508   0.370E-01    0.301E-01
DAV:   3    -0.125508340916E+04    0.11177E-03   -0.26603E-03 29652   0.926E-02    0.155E-01
DAV:   4    -0.125508327062E+04    0.13854E-03   -0.57641E-04 23556   0.435E-02    0.129E-01
DAV:   5    -0.125508321908E+04    0.51536E-04   -0.33583E-04 18096   0.323E-02
  26 F= -.12550832E+04 E0= -.12550832E+04  d E =-.794032E-02  mag=    40.0000
       N       E                     dE             d eps       ncg     rms          rms(c)
DAV:   1    -0.125508555507E+04   -0.22845E-02   -0.22418E-01 21672   0.652E-01    0.139E-01
DAV:   2    -0.125508614022E+04   -0.58515E-03   -0.70577E-03 27600   0.134E-01    0.153E-01
DAV:   3    -0.125508610300E+04    0.37219E-04   -0.40934E-04 20448   0.373E-02
  27 F= -.12550861E+04 E0= -.12550861E+04  d E =-.288392E-02  mag=    40.0000
       N       E                     dE             d eps       ncg     rms          rms(c)
DAV:   1    -0.125508900275E+04   -0.28625E-02   -0.17759E+00 21696   0.184E+00    0.302E-01
DAV:   2    -0.125509360175E+04   -0.45990E-02   -0.46446E-02 24696   0.322E-01    0.194E-01
DAV:   3    -0.125509363260E+04   -0.30850E-04   -0.19395E-03 30360   0.690E-02    0.109E-01
DAV:   4    -0.125509353172E+04    0.10088E-03   -0.18390E-04 15624   0.278E-02    0.772E-02
DAV:   5    -0.125509349595E+04    0.35768E-04   -0.33924E-04 17172   0.283E-02
  28 F= -.12550935E+04 E0= -.12550935E+04  d E =-.739295E-02  mag=    40.0000
       N       E                     dE             d eps       ncg     rms          rms(c)
DAV:   1    -0.125509626734E+04   -0.27356E-02   -0.34756E-01 21624   0.817E-01    0.200E-01
DAV:   2    -0.125509687722E+04   -0.60988E-03   -0.10428E-02 27708   0.160E-01    0.148E-01
DAV:   3    -0.125509685209E+04    0.25125E-04   -0.83023E-04 25260   0.546E-02
  29 F= -.12550969E+04 E0= -.12550969E+04  d E =-.335615E-02  mag=    40.0000
       N       E                     dE             d eps       ncg     rms          rms(c)
DAV:   1    -0.125509989536E+04   -0.30181E-02   -0.11032E+00 21696   0.145E+00    0.220E-01
DAV:   2    -0.125510260372E+04   -0.27084E-02   -0.28217E-02 24636   0.247E-01    0.121E-01
DAV:   3    -0.125510260354E+04    0.17647E-06   -0.10611E-03 27564   0.448E-02    0.701E-02
DAV:   4    -0.125510252756E+04    0.75986E-04   -0.11281E-04 14268   0.251E-02
  30 F= -.12551025E+04 E0= -.12551025E+04  d E =-.567546E-02  mag=    40.0000
       N       E                     dE             d eps       ncg     rms          rms(c)
DAV:   1    -0.125509319643E+04    0.94071E-02   -0.12094E+00 21696   0.152E+00    0.240E-01
DAV:   2    -0.125509648583E+04   -0.32894E-02   -0.32229E-02 24024   0.262E-01    0.137E-01
DAV:   3    -0.125509653137E+04   -0.45534E-04   -0.10492E-03 27144   0.469E-02    0.782E-02
DAV:   4    -0.125509647181E+04    0.59560E-04   -0.95688E-05 13236   0.199E-02
  31 F= -.12550965E+04 E0= -.12550965E+04  d E =0.605575E-02  mag=    40.0000
       N       E                     dE             d eps       ncg     rms          rms(c)
DAV:   1    -0.125506027962E+04    0.36252E-01   -0.85516E+00 21648   0.405E+00    0.701E-01
DAV:   2    -0.125508064470E+04   -0.20365E-01   -0.22394E-01 24024   0.692E-01    0.372E-01
DAV:   3    -0.125508071957E+04   -0.74869E-04   -0.90335E-03 31020   0.157E-01    0.197E-01
DAV:   4    -0.125508029409E+04    0.42548E-03   -0.14086E-03 29700   0.645E-02    0.130E-01
DAV:   5    -0.125508012578E+04    0.16831E-03   -0.56757E-04 23904   0.392E-02    0.656E-02
DAV:   6    -0.125508011369E+04    0.12085E-04   -0.14796E-04 13776   0.225E-02
  32 F= -.12550801E+04 E0= -.12550801E+04  d E =0.163581E-01  mag=    40.0000
       N       E                     dE             d eps       ncg     rms          rms(c)
DAV:   1    -0.125502392221E+04    0.56204E-01   -0.34438E+01 21672   0.811E+00    0.125E+00
DAV:   2    -0.125511365275E+04   -0.89731E-01   -0.88902E-01 23712   0.136E+00    0.646E-01
DAV:   3    -0.125511461764E+04   -0.96489E-03   -0.30109E-02 31044   0.233E-01    0.366E-01
DAV:   4    -0.125511278066E+04    0.18370E-02   -0.38750E-03 29472   0.101E-01    0.220E-01
DAV:   5    -0.125511204903E+04    0.73163E-03   -0.23573E-03 25500   0.800E-02    0.927E-02
DAV:   6    -0.125511212160E+04   -0.72565E-04   -0.94259E-04 25644   0.435E-02
  33 F= -.12551121E+04 E0= -.12551121E+04  d E =-.320079E-01  mag=    40.0000
       N       E                     dE             d eps       ncg     rms          rms(c)
DAV:   1    -0.125510735484E+04    0.46942E-02   -0.72674E+00 21648   0.373E+00    0.617E-01
DAV:   2    -0.125512555737E+04   -0.18203E-01   -0.19136E-01 24504   0.642E-01    0.384E-01
DAV:   3    -0.125512574359E+04   -0.18621E-03   -0.74291E-03 31344   0.135E-01    0.241E-01
DAV:   4    -0.125512539673E+04    0.34685E-03   -0.91087E-04 26832   0.490E-02    0.156E-01
DAV:   5    -0.125512515257E+04    0.24416E-03   -0.70032E-04 24708   0.516E-02    0.601E-02
DAV:   6    -0.125512517041E+04   -0.17843E-04   -0.28558E-04 17136   0.288E-02
  34 F= -.12551252E+04 E0= -.12551252E+04  d E =-.130488E-01  mag=    40.0000
       N       E                     dE             d eps       ncg     rms          rms(c)
DAV:   1    -0.125511865366E+04    0.64989E-02   -0.99160E-01 21648   0.138E+00    0.229E-01
DAV:   2    -0.125512117297E+04   -0.25193E-02   -0.27043E-02 25560   0.256E-01    0.222E-01
DAV:   3    -0.125512116208E+04    0.10898E-04   -0.14028E-03 29220   0.648E-02    0.141E-01
DAV:   4    -0.125512107775E+04    0.84325E-04   -0.18604E-04 16296   0.240E-02
  35 F= -.12551211E+04 E0= -.12551211E+04  d E =0.409266E-02  mag=    40.0000
       N       E                     dE             d eps       ncg     rms          rms(c)
DAV:   1    -0.125512301642E+04   -0.18543E-02   -0.15015E+00 21624   0.170E+00    0.321E-01
DAV:   2    -0.125512678389E+04   -0.37675E-02   -0.45225E-02 26628   0.326E-01    0.251E-01
DAV:   3    -0.125512674615E+04    0.37742E-04   -0.24969E-03 29244   0.878E-02    0.121E-01
DAV:   4    -0.125512664737E+04    0.98782E-04   -0.38541E-04 19692   0.363E-02
  36 F= -.12551266E+04 E0= -.12551266E+04  d E =-.556962E-02  mag=    40.0000
       N       E                     dE             d eps       ncg     rms          rms(c)
DAV:   1    -0.125512854479E+04   -0.17986E-02   -0.12897E-01 21528   0.498E-01    0.144E-01
DAV:   2    -0.125512863045E+04   -0.85665E-04   -0.42642E-03 29460   0.109E-01    0.116E-01
DAV:   3    -0.125512858846E+04    0.41993E-04   -0.34415E-04 19752   0.416E-02
  37 F= -.12551286E+04 E0= -.12551286E+04  d E =-.194109E-02  mag=    40.0000
       N       E                     dE             d eps       ncg     rms          rms(c)
DAV:   1    -0.125512598797E+04    0.26425E-02   -0.18724E-01 21528   0.600E-01    0.111E-01
DAV:   2    -0.125512643515E+04   -0.44719E-03   -0.53152E-03 26256   0.108E-01    0.808E-02
DAV:   3    -0.125512642384E+04    0.11317E-04   -0.19714E-04 15336   0.294E-02
  38 F= -.12551264E+04 E0= -.12551264E+04  d E =0.216462E-02  mag=    40.0000
       N       E                     dE             d eps       ncg     rms          rms(c)
DAV:   1    -0.125512918984E+04   -0.27547E-02   -0.15205E+00 21504   0.171E+00    0.334E-01
DAV:   2    -0.125513258130E+04   -0.33915E-02   -0.43828E-02 26400   0.320E-01    0.255E-01
DAV:   3    -0.125513247872E+04    0.10258E-03   -0.25360E-03 28680   0.941E-02    0.100E-01
DAV:   4    -0.125513237874E+04    0.99983E-04   -0.32297E-04 18252   0.332E-02
  39 F= -.12551324E+04 E0= -.12551324E+04  d E =-.595490E-02  mag=    40.0000
       N       E                     dE             d eps       ncg     rms          rms(c)
DAV:   1    -0.125513422325E+04   -0.17445E-02   -0.11766E-01 21852   0.487E-01    0.203E-01
DAV:   2    -0.125513402545E+04    0.19780E-03   -0.63784E-03 30852   0.147E-01    0.189E-01
DAV:   3    -0.125513390190E+04    0.12354E-03   -0.10288E-03 29064   0.585E-02    0.787E-02
DAV:   4    -0.125513389105E+04    0.10859E-04   -0.57916E-05 12864   0.210E-02
  40 F= -.12551339E+04 E0= -.12551339E+04  d E =-.151231E-02  mag=    40.0000
       N       E                     dE             d eps       ncg     rms          rms(c)
DAV:   1    -0.125513633334E+04   -0.24314E-02   -0.92744E-01 21648   0.133E+00    0.226E-01
DAV:   2    -0.125513846493E+04   -0.21316E-02   -0.24607E-02 24660   0.231E-01    0.133E-01
DAV:   3    -0.125513846223E+04    0.27001E-05   -0.10569E-03 28608   0.523E-02    0.835E-02
DAV:   4    -0.125513840476E+04    0.57472E-04   -0.12729E-04 14568   0.218E-02
  41 F= -.12551384E+04 E0= -.12551384E+04  d E =-.451372E-02  mag=    40.0000
       N       E                     dE             d eps       ncg     rms          rms(c)
DAV:   1    -0.125514025746E+04   -0.17952E-02   -0.28800E-01 21528   0.740E-01    0.140E-01
DAV:   2    -0.125514098170E+04   -0.72424E-03   -0.76139E-03 25884   0.130E-01    0.101E-01
DAV:   3    -0.125514097712E+04    0.45730E-05   -0.28771E-04 17700   0.327E-02
  42 F= -.12551410E+04 E0= -.12551410E+04  d E =-.257236E-02  mag=    40.0000
       N       E                     dE             d eps       ncg     rms          rms(c)
DAV:   1    -0.125507732632E+04    0.63655E-01   -0.35323E+01 21600   0.820E+00    0.128E+00
DAV:   2    -0.125516875775E+04   -0.91431E-01   -0.91427E-01 24036   0.138E+00    0.693E-01
DAV:   3    -0.125516937003E+04   -0.61228E-03   -0.31437E-02 30780   0.240E-01    0.389E-01
DAV:   4    -0.125516732368E+04    0.20463E-02   -0.40162E-03 29784   0.106E-01    0.242E-01
DAV:   5    -0.125516659181E+04    0.73187E-03   -0.38893E-03 25224   0.983E-02    0.828E-02
DAV:   6    -0.125516664066E+04   -0.48851E-04   -0.10013E-03 26220   0.530E-02    0.613E-02
DAV:   7    -0.125516664214E+04   -0.14838E-05   -0.16188E-04 13656   0.227E-02
  43 F= -.12551666E+04 E0= -.12551666E+04  d E =-.256650E-01  mag=    40.0000
       N       E                     dE             d eps       ncg     rms          rms(c)
DAV:   1    -0.125515080205E+04    0.15839E-01   -0.39867E+00 21504   0.277E+00    0.555E-01
DAV:   2    -0.125515946393E+04   -0.86619E-02   -0.10851E-01 26580   0.505E-01    0.387E-01
DAV:   3    -0.125515931134E+04    0.15258E-03   -0.59579E-03 30912   0.135E-01    0.197E-01
DAV:   4    -0.125515894111E+04    0.37023E-03   -0.12099E-03 30012   0.594E-02    0.150E-01
DAV:   5    -0.125515878400E+04    0.15711E-03   -0.48573E-04 23160   0.390E-02    0.488E-02
DAV:   6    -0.125515877470E+04    0.92989E-05   -0.12899E-04 13380   0.223E-02
  44 F= -.12551588E+04 E0= -.12551588E+04  d E =0.786744E-02  mag=    40.0000
       N       E                     dE             d eps       ncg     rms          rms(c)
DAV:   1    -0.125515890854E+04   -0.12454E-03   -0.29242E+00 21672   0.236E+00    0.364E-01
DAV:   2    -0.125516642531E+04   -0.75168E-02   -0.76177E-02 24012   0.401E-01    0.214E-01
DAV:   3    -0.125516648104E+04   -0.55722E-04   -0.27950E-03 30504   0.783E-02    0.114E-01
DAV:   4    -0.125516631800E+04    0.16304E-03   -0.35865E-04 19212   0.337E-02    0.774E-02
DAV:   5    -0.125516625878E+04    0.59224E-04   -0.44945E-04 20268   0.358E-02
  45 F= -.12551663E+04 E0= -.12551663E+04  d E =-.748407E-02  mag=    40.0000
       N       E                     dE             d eps       ncg     rms          rms(c)
DAV:   1    -0.125516212948E+04    0.41885E-02   -0.49817E+00 21672   0.307E+00    0.543E-01
DAV:   2    -0.125517539682E+04   -0.13267E-01   -0.12753E-01 24276   0.517E-01    0.305E-01
DAV:   3    -0.125517573578E+04   -0.33895E-03   -0.47690E-03 31320   0.998E-02    0.166E-01
DAV:   4    -0.125517549285E+04    0.24293E-03   -0.42606E-04 21096   0.364E-02    0.110E-01
DAV:   5    -0.125517534711E+04    0.14574E-03   -0.59059E-04 22560   0.406E-02    0.439E-02
DAV:   6    -0.125517535156E+04   -0.44467E-05   -0.13065E-04 13404   0.215E-02
  46 F= -.12551754E+04 E0= -.12551754E+04  d E =-.909278E-02  mag=    40.0000
       N       E                     dE             d eps       ncg     rms          rms(c)
DAV:   1    -0.125517702769E+04   -0.16806E-02   -0.48721E-01 21648   0.965E-01    0.157E-01
DAV:   2    -0.125517828553E+04   -0.12578E-02   -0.13805E-02 26604   0.177E-01    0.117E-01
DAV:   3    -0.125517828757E+04   -0.20438E-05   -0.70685E-04 25332   0.421E-02
  47 F= -.12551783E+04 E0= -.12551783E+04  d E =-.293602E-02  mag=    40.0000
       N       E                     dE             d eps       ncg     rms          rms(c)
DAV:   1    -0.125514099235E+04    0.37293E-01   -0.95421E+00 21648   0.426E+00    0.687E-01
DAV:   2    -0.125516577627E+04   -0.24784E-01   -0.25012E-01 23628   0.719E-01    0.340E-01
DAV:   3    -0.125516618346E+04   -0.40720E-03   -0.89895E-03 31224   0.137E-01    0.190E-01
DAV:   4    -0.125516579283E+04    0.39064E-03   -0.11162E-03 28176   0.512E-02    0.116E-01
DAV:   5    -0.125516555324E+04    0.23959E-03   -0.76258E-04 24708   0.495E-02    0.582E-02
DAV:   6    -0.125516555494E+04   -0.16959E-05   -0.28925E-04 17544   0.313E-02
  48 F= -.12551656E+04 E0= -.12551656E+04  d E =0.127326E-01  mag=    40.0000
       N       E                     dE             d eps       ncg     rms          rms(c)
DAV:   1    -0.125514696944E+04    0.18584E-01   -0.13083E+01 21744   0.499E+00    0.738E-01
DAV:   2    -0.125518092745E+04   -0.33958E-01   -0.33782E-01 23796   0.834E-01    0.391E-01
DAV:   3    -0.125518124148E+04   -0.31403E-03   -0.11454E-02 31068   0.141E-01    0.226E-01
DAV:   4    -0.125518052738E+04    0.71410E-03   -0.14647E-03 28164   0.609E-02    0.135E-01
DAV:   5    -0.125518023528E+04    0.29210E-03   -0.10024E-03 24228   0.522E-02    0.506E-02
DAV:   6    -0.125518026063E+04   -0.25356E-04   -0.31917E-04 16728   0.270E-02
  49 F= -.12551803E+04 E0= -.12551803E+04  d E =-.147057E-01  mag=    40.0000
       N       E                     dE             d eps       ncg     rms          rms(c)
DAV:   1    -0.125509434546E+04    0.85890E-01   -0.42508E+01 21756   0.899E+00    0.138E+00
DAV:   2    -0.125520609813E+04   -0.11175E+00   -0.11021E+00 24072   0.151E+00    0.738E-01
DAV:   3    -0.125520773996E+04   -0.16418E-02   -0.39829E-02 31476   0.279E-01    0.449E-01
DAV:   4    -0.125520601285E+04    0.17271E-02   -0.37990E-03 31140   0.100E-01    0.287E-01
DAV:   5    -0.125520461752E+04    0.13953E-02   -0.38376E-03 25344   0.102E-01    0.114E-01
DAV:   6    -0.125520472119E+04   -0.10366E-03   -0.14554E-03 27660   0.568E-02    0.668E-02
DAV:   7    -0.125520471594E+04    0.52437E-05   -0.32593E-04 18012   0.305E-02
  50 F= -.12552047E+04 E0= -.12552047E+04  d E =-.244553E-01  mag=    40.0000
       N       E                     dE             d eps       ncg     rms          rms(c)
DAV:   1    -0.125519474350E+04    0.99777E-02   -0.20981E+00 21552   0.200E+00    0.385E-01
DAV:   2    -0.125519973937E+04   -0.49959E-02   -0.55287E-02 24804   0.349E-01    0.240E-01
DAV:   3    -0.125519975332E+04   -0.13947E-04   -0.23512E-03 30252   0.785E-02    0.122E-01
DAV:   4    -0.125519957378E+04    0.17953E-03   -0.43794E-04 20376   0.365E-02    0.806E-02
DAV:   5    -0.125519951299E+04    0.60790E-04   -0.26092E-04 16428   0.334E-02
  51 F= -.12551995E+04 E0= -.12551995E+04  d E =0.520295E-02  mag=    40.0000
       N       E                     dE             d eps       ncg     rms          rms(c)
DAV:   1    -0.125520077740E+04   -0.12036E-02   -0.15943E-01 21528   0.560E-01    0.142E-01
DAV:   2    -0.125520098471E+04   -0.20731E-03   -0.50711E-03 26964   0.114E-01    0.996E-02
DAV:   3    -0.125520095812E+04    0.26585E-04   -0.29279E-04 18684   0.388E-02
  52 F= -.12552010E+04 E0= -.12552010E+04  d E =-.144513E-02  mag=    40.0000
       N       E                     dE             d eps       ncg     rms          rms(c)
DAV:   1    -0.125520193411E+04   -0.94940E-03   -0.10790E+00 21636   0.143E+00    0.219E-01
DAV:   2    -0.125520470292E+04   -0.27688E-02   -0.27849E-02 24336   0.242E-01    0.136E-01
DAV:   3    -0.125520471703E+04   -0.14113E-04   -0.10436E-03 27708   0.485E-02    0.833E-02
DAV:   4    -0.125520466543E+04    0.51600E-04   -0.83747E-05 12840   0.188E-02
  53 F= -.12552047E+04 E0= -.12552047E+04  d E =-.370731E-02  mag=    40.0000
       N       E                     dE             d eps       ncg     rms          rms(c)
DAV:   1    -0.125520452622E+04    0.19081E-03   -0.38947E-03 22236   0.910E-02    0.555E-02
DAV:   2    -0.125520451294E+04    0.13279E-04   -0.21188E-04 14028   0.268E-02
  54 F= -.12552045E+04 E0= -.12552045E+04  d E =0.152492E-03  mag=    40.0000
       N       E                     dE             d eps       ncg     rms          rms(c)
DAV:   1    -0.125520562531E+04   -0.10991E-02   -0.47150E-01 21528   0.950E-01    0.169E-01
DAV:   2    -0.125520670151E+04   -0.10762E-02   -0.13585E-02 27132   0.176E-01    0.134E-01
DAV:   3    -0.125520668081E+04    0.20694E-04   -0.83559E-04 25944   0.505E-02
  55 F= -.12552067E+04 E0= -.12552067E+04  d E =-.216787E-02  mag=    40.0000
       N       E                     dE             d eps       ncg     rms          rms(c)
DAV:   1    -0.125520772718E+04   -0.10257E-02   -0.43227E-02 22236   0.301E-01    0.155E-01
DAV:   2    -0.125520748240E+04    0.24478E-03   -0.27809E-03 31224   0.947E-02    0.110E-01
DAV:   3    -0.125520741974E+04    0.62662E-04   -0.45150E-04 21456   0.437E-02
  56 F= -.12552074E+04 E0= -.12552074E+04  d E =-.738925E-03  mag=    40.0000
       N       E                     dE             d eps       ncg     rms          rms(c)
DAV:   1    -0.125520910118E+04   -0.16188E-02   -0.99972E-01 21504   0.139E+00    0.324E-01
DAV:   2    -0.125521092456E+04   -0.18234E-02   -0.30043E-02 26520   0.265E-01    0.231E-01
DAV:   3    -0.125521077709E+04    0.14746E-03   -0.19540E-03 29268   0.863E-02    0.113E-01
DAV:   4    -0.125521067564E+04    0.10145E-03   -0.28946E-04 16656   0.304E-02    0.787E-02
DAV:   5    -0.125521064793E+04    0.27709E-04   -0.13996E-04 12228   0.200E-02
  57 F= -.12552106E+04 E0= -.12552106E+04  d E =-.322820E-02  mag=    40.0000
       N       E                     dE             d eps       ncg     rms          rms(c)
DAV:   1    -0.125521162734E+04   -0.95170E-03   -0.69130E-02 21576   0.378E-01    0.187E-01
DAV:   2    -0.125521148027E+04    0.14707E-03   -0.43015E-03 30768   0.114E-01    0.169E-01
DAV:   3    -0.125521137025E+04    0.11001E-03   -0.74794E-04 25968   0.547E-02    0.923E-02
DAV:   4    -0.125521135304E+04    0.17215E-04   -0.12374E-04 13524   0.201E-02
  58 F= -.12552114E+04 E0= -.12552114E+04  d E =-.705104E-03  mag=    40.0000
       N       E                     dE             d eps       ncg     rms          rms(c)
DAV:   1    -0.125521230744E+04   -0.93719E-03   -0.62798E-01 21672   0.110E+00    0.182E-01
DAV:   2    -0.125521395669E+04   -0.16493E-02   -0.17403E-02 25812   0.196E-01    0.143E-01
DAV:   3    -0.125521396537E+04   -0.86779E-05   -0.75118E-04 26016   0.436E-02
  59 F= -.12552140E+04 E0= -.12552140E+04  d E =-.261233E-02  mag=    40.0000
       N       E                     dE             d eps       ncg     rms          rms(c)
DAV:   1    -0.125521499474E+04   -0.10380E-02   -0.15188E-01 21648   0.537E-01    0.101E-01
DAV:   2    -0.125521533592E+04   -0.34118E-03   -0.42980E-03 27252   0.100E-01    0.846E-02
DAV:   3    -0.125521530608E+04    0.29838E-04   -0.16819E-04 15252   0.263E-02
  60 F= -.12552153E+04 E0= -.12552153E+04  d E =-.134071E-02  mag=    40.0000
       N       E                     dE             d eps       ncg     rms          rms(c)
DAV:   1    -0.125521403529E+04    0.13006E-02   -0.89931E-02 21624   0.416E-01    0.754E-02
DAV:   2    -0.125521427133E+04   -0.23604E-03   -0.26191E-03 25860   0.758E-02    0.476E-02
DAV:   3    -0.125521427312E+04   -0.17916E-05   -0.75999E-05 12036   0.178E-02
  61 F= -.12552143E+04 E0= -.12552143E+04  d E =0.103296E-02  mag=    40.0000
       N       E                     dE             d eps       ncg     rms          rms(c)
DAV:   1    -0.125521509806E+04   -0.82673E-03   -0.24250E-01 21648   0.682E-01    0.117E-01
DAV:   2    -0.125521572229E+04   -0.62423E-03   -0.69568E-03 26292   0.124E-01    0.875E-02
DAV:   3    -0.125521571943E+04    0.28591E-05   -0.24537E-04 16512   0.293E-02
  62 F= -.12552157E+04 E0= -.12552157E+04  d E =-.144631E-02  mag=    40.0000
       N       E                     dE             d eps       ncg     rms          rms(c)
DAV:   1    -0.125521573962E+04   -0.17330E-04   -0.15421E-02 21756   0.178E-01    0.761E-02
DAV:   2    -0.125521575462E+04   -0.15000E-04   -0.11447E-03 28632   0.555E-02    0.841E-02
DAV:   3    -0.125521572125E+04    0.33374E-04   -0.95090E-05 13476   0.215E-02
  63 F= -.12552157E+04 E0= -.12552157E+04  d E =-.181540E-05  mag=    40.0000
       N       E                     dE             d eps       ncg     rms          rms(c)
DAV:   1    -0.125521679231E+04   -0.10377E-02   -0.10257E-01 21552   0.454E-01    0.144E-01
DAV:   2    -0.125521678701E+04    0.53050E-05   -0.35629E-03 27360   0.937E-02    0.826E-02
DAV:   3    -0.125521675107E+04    0.35937E-04   -0.31588E-04 19656   0.403E-02
  64 F= -.12552168E+04 E0= -.12552168E+04  d E =-.102982E-02  mag=    40.0000
       N       E                     dE             d eps       ncg     rms          rms(c)
DAV:   1    -0.125521607606E+04    0.71095E-03   -0.38698E-01 21552   0.879E-01    0.222E-01
DAV:   2    -0.125521667244E+04   -0.59638E-03   -0.11230E-02 29052   0.182E-01    0.211E-01
DAV:   3    -0.125521658785E+04    0.84589E-04   -0.53839E-04 22428   0.548E-02
  65 F= -.12552166E+04 E0= -.12552166E+04  d E =0.163222E-03  mag=    40.0000
       N       E                     dE             d eps       ncg     rms          rms(c)
DAV:   1    -0.125521746411E+04   -0.79168E-03   -0.65218E-01 21504   0.112E+00    0.186E-01
DAV:   2    -0.125521926362E+04   -0.17995E-02   -0.19069E-02 27348   0.217E-01    0.169E-01
DAV:   3    -0.125521926646E+04   -0.28349E-05   -0.75148E-04 24660   0.566E-02
  66 F= -.12552193E+04 E0= -.12552193E+04  d E =-.267861E-02  mag=    40.0000
       N       E                     dE             d eps       ncg     rms          rms(c)
DAV:   1    -0.125521995750E+04   -0.69388E-03   -0.12048E-01 21552   0.480E-01    0.109E-01
DAV:   2    -0.125522019379E+04   -0.23629E-03   -0.33084E-03 27480   0.873E-02    0.824E-02
DAV:   3    -0.125522016742E+04    0.26376E-04   -0.17796E-04 15348   0.276E-02
  67 F= -.12552202E+04 E0= -.12552202E+04  d E =-.900960E-03  mag=    40.0000
       N       E                     dE             d eps       ncg     rms          rms(c)
DAV:   1    -0.125521904014E+04    0.11537E-02   -0.22139E+00 21600   0.205E+00    0.291E-01
DAV:   2    -0.125522461919E+04   -0.55791E-02   -0.58200E-02 26400   0.357E-01    0.240E-01
DAV:   3    -0.125522464915E+04   -0.29960E-04   -0.22576E-03 30972   0.853E-02    0.170E-01
DAV:   4    -0.125522454143E+04    0.10772E-03   -0.13201E-04 14352   0.237E-02    0.102E-01
DAV:   5    -0.125522443685E+04    0.10458E-03   -0.51436E-04 20712   0.408E-02    0.361E-02
DAV:   6    -0.125522444832E+04   -0.11464E-04   -0.16065E-04 13392   0.266E-02
  68 F= -.12552244E+04 E0= -.12552244E+04  d E =-.428090E-02  mag=    40.0000
       N       E                     dE             d eps       ncg     rms          rms(c)
DAV:   1    -0.125522155000E+04    0.28868E-02   -0.32299E+00 21528   0.248E+00    0.392E-01
DAV:   2    -0.125522968001E+04   -0.81300E-02   -0.88689E-02 26628   0.435E-01    0.282E-01
DAV:   3    -0.125522969851E+04   -0.18493E-04   -0.46366E-03 29772   0.110E-01    0.147E-01
DAV:   4    -0.125522950955E+04    0.18895E-03   -0.71524E-04 24816   0.493E-02    0.109E-01
DAV:   5    -0.125522946100E+04    0.48558E-04   -0.61084E-04 22116   0.396E-02
  69 F= -.12552295E+04 E0= -.12552295E+04  d E =-.501268E-02  mag=    40.0000
       N       E                     dE             d eps       ncg     rms          rms(c)
DAV:   1    -0.125519980238E+04    0.29707E-01   -0.89976E+00 21504   0.415E+00    0.622E-01
DAV:   2    -0.125522196283E+04   -0.22160E-01   -0.24055E-01 25428   0.709E-01    0.383E-01
DAV:   3    -0.125522199500E+04   -0.32169E-04   -0.99760E-03 31080   0.160E-01    0.268E-01
DAV:   4    -0.125522160248E+04    0.39252E-03   -0.10096E-03 28824   0.571E-02    0.162E-01
DAV:   5    -0.125522125729E+04    0.34519E-03   -0.11391E-03 25824   0.599E-02    0.617E-02
DAV:   6    -0.125522125628E+04    0.10075E-05   -0.35002E-04 17940   0.360E-02
  70 F= -.12552213E+04 E0= -.12552213E+04  d E =0.820471E-02  mag=    40.0000
       N       E                     dE             d eps       ncg     rms          rms(c)
DAV:   1    -0.125522132871E+04   -0.71422E-04   -0.14084E-01 21552   0.521E-01    0.224E-01
DAV:   2    -0.125522154818E+04   -0.21947E-03   -0.71657E-03 29748   0.155E-01    0.252E-01
DAV:   3    -0.125522144311E+04    0.10507E-03   -0.98850E-04 27132   0.533E-02    0.176E-01
DAV:   4    -0.125522134062E+04    0.10249E-03   -0.69244E-04 21372   0.365E-02    0.111E-01
DAV:   5    -0.125522130189E+04    0.38734E-04   -0.13970E-04 16596   0.310E-02
  71 F= -.12552213E+04 E0= -.12552213E+04  d E =-.456056E-04  mag=    40.0000
       N       E                     dE             d eps       ncg     rms          rms(c)
DAV:   1    -0.125522295438E+04   -0.16138E-02   -0.50854E-01 21504   0.984E-01    0.236E-01
DAV:   2    -0.125522419965E+04   -0.12453E-02   -0.15363E-02 27120   0.207E-01    0.234E-01
DAV:   3    -0.125522417644E+04    0.23206E-04   -0.13351E-03 29364   0.635E-02    0.158E-01
DAV:   4    -0.125522409703E+04    0.79416E-04   -0.30866E-04 19020   0.272E-02
  72 F= -.12552241E+04 E0= -.12552241E+04  d E =-.279514E-02  mag=    40.0000
       N       E                     dE             d eps       ncg     rms          rms(c)
DAV:   1    -0.125522525161E+04   -0.10752E-02   -0.38154E-01 21648   0.851E-01    0.164E-01
DAV:   2    -0.125522611852E+04   -0.86691E-03   -0.10432E-02 26808   0.156E-01    0.115E-01
DAV:   3    -0.125522610446E+04    0.14069E-04   -0.60721E-04 24792   0.443E-02
  73 F= -.12552261E+04 E0= -.12552261E+04  d E =-.200743E-02  mag=    40.0000
       N       E                     dE             d eps       ncg     rms          rms(c)
DAV:   1    -0.125522692667E+04   -0.80815E-03   -0.10830E-01 21552   0.454E-01    0.850E-02
DAV:   2    -0.125522716993E+04   -0.24326E-03   -0.28393E-03 26508   0.814E-02    0.583E-02
DAV:   3    -0.125522715471E+04    0.15223E-04   -0.10280E-04 13572   0.210E-02
  74 F= -.12552272E+04 E0= -.12552272E+04  d E =-.105025E-02  mag=    40.0000
       N       E                     dE             d eps       ncg     rms          rms(c)
DAV:   1    -0.125522715217E+04    0.17756E-04   -0.10905E-02 21528   0.134E-01    0.636E-02
DAV:   2    -0.125522717611E+04   -0.23933E-04   -0.70696E-04 23808   0.461E-02
  75 F= -.12552272E+04 E0= -.12552272E+04  d E =-.213997E-04  mag=    40.0000
       N       E                     dE             d eps       ncg     rms          rms(c)
DAV:   1    -0.125522822164E+04   -0.10695E-02   -0.52937E-01 21600   0.101E+00    0.187E-01
DAV:   2    -0.125522955622E+04   -0.13346E-02   -0.16222E-02 27816   0.199E-01    0.166E-01
DAV:   3    -0.125522947223E+04    0.83997E-04   -0.95663E-04 27036   0.590E-02
  76 F= -.12552295E+04 E0= -.12552295E+04  d E =-.229612E-02  mag=    40.0000
       N       E                     dE             d eps       ncg     rms          rms(c)
DAV:   1    -0.125523018795E+04   -0.63172E-03   -0.81089E-02 21648   0.393E-01    0.962E-02
DAV:   2    -0.125523032516E+04   -0.13721E-03   -0.20653E-03 26616   0.705E-02    0.566E-02
DAV:   3    -0.125523030902E+04    0.16134E-04   -0.96975E-05 14160   0.224E-02
  77 F= -.12552303E+04 E0= -.12552303E+04  d E =-.836794E-03  mag=    40.0000
       N       E                     dE             d eps       ncg     rms          rms(c)
DAV:   1    -0.125523066885E+04   -0.34369E-03   -0.15656E-02 21648   0.172E-01    0.373E-02
DAV:   2    -0.125523069926E+04   -0.30409E-04   -0.39086E-04 15948   0.310E-02
  78 F= -.12552307E+04 E0= -.12552307E+04  d E =-.390234E-03  mag=    40.0000
       N       E                     dE             d eps       ncg     rms          rms(c)
DAV:   1    -0.125523042585E+04    0.24299E-03   -0.14661E+00 21636   0.167E+00    0.295E-01
DAV:   2    -0.125523442991E+04   -0.40041E-02   -0.37600E-02 24240   0.277E-01    0.166E-01
DAV:   3    -0.125523453294E+04   -0.10304E-03   -0.14035E-03 29184   0.534E-02    0.892E-02
DAV:   4    -0.125523445004E+04    0.82901E-04   -0.10411E-04 14352   0.229E-02
  79 F= -.12552345E+04 E0= -.12552345E+04  d E =-.375079E-02  mag=    40.0000
       N       E                     dE             d eps       ncg     rms          rms(c)
DAV:   1    -0.125523490152E+04   -0.36858E-03   -0.40734E-02 21552   0.278E-01    0.718E-02
DAV:   2    -0.125523498540E+04   -0.83881E-04   -0.10767E-03 26232   0.586E-02    0.575E-02
DAV:   3    -0.125523498662E+04   -0.12107E-05   -0.12235E-04 13212   0.198E-02
  80 F= -.12552350E+04 E0= -.12552350E+04  d E =-.536571E-03  mag=    40.0000
       N       E                     dE             d eps       ncg     rms          rms(c)
DAV:   1    -0.125523583583E+04   -0.85043E-03   -0.54543E-01 21552   0.102E+00    0.165E-01
DAV:   2    -0.125523719852E+04   -0.13627E-02   -0.14750E-02 26472   0.181E-01    0.136E-01
DAV:   3    -0.125523717773E+04    0.20794E-04   -0.68298E-04 25176   0.423E-02
  81 F= -.12552372E+04 E0= -.12552372E+04  d E =-.219112E-02  mag=    40.0000
       N       E                     dE             d eps       ncg     rms          rms(c)
DAV:   1    -0.125523716931E+04    0.29211E-04   -0.12166E-03 20964   0.522E-02    0.609E-02
DAV:   2    -0.125523716547E+04    0.38454E-05   -0.17280E-04 15636   0.307E-02
  82 F= -.12552372E+04 E0= -.12552372E+04  d E =0.122623E-04  mag=    40.0000
       N       E                     dE             d eps       ncg     rms          rms(c)
DAV:   1    -0.125523784274E+04   -0.67343E-03   -0.55451E-01 21600   0.103E+00    0.166E-01
DAV:   2    -0.125523928226E+04   -0.14395E-02   -0.15108E-02 26076   0.180E-01    0.126E-01
DAV:   3    -0.125523927670E+04    0.55682E-05   -0.56700E-04 23532   0.373E-02
  83 F= -.12552393E+04 E0= -.12552393E+04  d E =-.211123E-02  mag=    40.0000
       N       E                     dE             d eps       ncg     rms          rms(c)
DAV:   1    -0.125524010257E+04   -0.82031E-03   -0.13885E-01 21600   0.514E-01    0.109E-01
DAV:   2    -0.125524041793E+04   -0.31536E-03   -0.39670E-03 26712   0.968E-02    0.890E-02
DAV:   3    -0.125524039092E+04    0.27009E-04   -0.17421E-04 15756   0.259E-02
  84 F= -.12552404E+04 E0= -.12552404E+04  d E =-.111423E-02  mag=    40.0000
       N       E                     dE             d eps       ncg     rms          rms(c)
DAV:   1    -0.125524013419E+04    0.28374E-03   -0.62757E-03 21600   0.112E-01    0.325E-02
DAV:   2    -0.125524015304E+04   -0.18850E-04   -0.22773E-04 15264   0.243E-02
  85 F= -.12552402E+04 E0= -.12552402E+04  d E =0.237877E-03  mag=    40.0000
       N       E                     dE             d eps       ncg     rms          rms(c)
DAV:   1    -0.125524083234E+04   -0.69815E-03   -0.52426E-01 21600   0.100E+00    0.151E-01
DAV:   2    -0.125524222008E+04   -0.13877E-02   -0.14288E-02 26076   0.178E-01    0.104E-01
DAV:   3    -0.125524222280E+04   -0.27126E-05   -0.52727E-04 22836   0.359E-02
  86 F= -.12552422E+04 E0= -.12552422E+04  d E =-.206975E-02  mag=    40.0000
       N       E                     dE             d eps       ncg     rms          rms(c)
DAV:   1    -0.125524302006E+04   -0.79998E-03   -0.18321E-01 21600   0.590E-01    0.107E-01
DAV:   2    -0.125524347484E+04   -0.45478E-03   -0.51870E-03 27192   0.112E-01    0.107E-01
DAV:   3    -0.125524344634E+04    0.28497E-04   -0.24549E-04 17400   0.298E-02
  87 F= -.12552434E+04 E0= -.12552434E+04  d E =-.122355E-02  mag=    40.0000
       N       E                     dE             d eps       ncg     rms          rms(c)
DAV:   1    -0.125524420383E+04   -0.72899E-03   -0.12510E-01 21624   0.487E-01    0.978E-02
DAV:   2    -0.125524446353E+04   -0.25970E-03   -0.32001E-03 26040   0.831E-02    0.574E-02
DAV:   3    -0.125524444458E+04    0.18944E-04   -0.10636E-04 15264   0.206E-02
  88 F= -.12552444E+04 E0= -.12552444E+04  d E =-.998240E-03  mag=    40.0000
       N       E                     dE             d eps       ncg     rms          rms(c)
DAV:   1    -0.125524515376E+04   -0.69023E-03   -0.10540E-01 21552   0.449E-01    0.867E-02
DAV:   2    -0.125524537579E+04   -0.22203E-03   -0.29480E-03 27672   0.823E-02    0.697E-02
DAV:   3    -0.125524536467E+04    0.11121E-04   -0.12977E-04 13236   0.248E-02
  89 F= -.12552454E+04 E0= -.12552454E+04  d E =-.920084E-03  mag=    40.0000
       N       E                     dE             d eps       ncg     rms          rms(c)
DAV:   1    -0.125524461459E+04    0.76120E-03   -0.17338E+00 21600   0.182E+00    0.281E-01
DAV:   2    -0.125524903604E+04   -0.44215E-02   -0.45125E-02 24756   0.306E-01    0.175E-01
DAV:   3    -0.125524907148E+04   -0.35430E-04   -0.16693E-03 30240   0.614E-02    0.120E-01
DAV:   4    -0.125524899216E+04    0.79314E-04   -0.10420E-04 13872   0.212E-02
  90 F= -.12552490E+04 E0= -.12552490E+04  d E =-.362749E-02  mag=    40.0000
       N       E                     dE             d eps       ncg     rms          rms(c)
DAV:   1    -0.125524712321E+04    0.19483E-02   -0.23442E-01 21600   0.675E-01    0.122E-01
DAV:   2    -0.125524773733E+04   -0.61412E-03   -0.75456E-03 26724   0.131E-01    0.987E-02
DAV:   3    -0.125524771886E+04    0.18473E-04   -0.32011E-04 18816   0.358E-02
  91 F= -.12552477E+04 E0= -.12552477E+04  d E =0.127331E-02  mag=    40.0000
       N       E                     dE             d eps       ncg     rms          rms(c)
DAV:   1    -0.125524712998E+04    0.60735E-03   -0.41999E-02 21528   0.284E-01    0.645E-02
DAV:   2    -0.125524720735E+04   -0.77375E-04   -0.12155E-03 27684   0.611E-02    0.673E-02
DAV:   3    -0.125524719552E+04    0.11838E-04   -0.82703E-05 12372   0.195E-02
  92 F= -.12552472E+04 E0= -.12552472E+04  d E =0.523339E-03  mag=    40.0000
       N       E                     dE             d eps       ncg     rms          rms(c)
DAV:   1    -0.125524802297E+04   -0.81562E-03   -0.43523E-01 21504   0.913E-01    0.156E-01
DAV:   2    -0.125524904133E+04   -0.10184E-02   -0.11951E-02 25464   0.159E-01    0.899E-02
DAV:   3    -0.125524903555E+04    0.57850E-05   -0.41679E-04 21732   0.353E-02
  93 F= -.12552490E+04 E0= -.12552490E+04  d E =-.184003E-02  mag=    40.0000
       N       E                     dE             d eps       ncg     rms          rms(c)
DAV:   1    -0.125524979305E+04   -0.75172E-03   -0.17705E-01 21600   0.578E-01    0.860E-02
DAV:   2    -0.125525021386E+04   -0.42081E-03   -0.45432E-03 26280   0.986E-02    0.571E-02
DAV:   3    -0.125525020054E+04    0.13324E-04   -0.14983E-04 14556   0.217E-02
  94 F= -.12552502E+04 E0= -.12552502E+04  d E =-.116499E-02  mag=    40.0000
       N       E                     dE             d eps       ncg     rms          rms(c)
DAV:   1    -0.125524991763E+04    0.29623E-03   -0.82751E-03 21384   0.127E-01    0.278E-02
DAV:   2    -0.125524993869E+04   -0.21058E-04   -0.26460E-04 13836   0.261E-02
  95 F= -.12552499E+04 E0= -.12552499E+04  d E =0.261851E-03  mag=    40.0000
       N       E                     dE             d eps       ncg     rms          rms(c)
DAV:   1    -0.125525053425E+04   -0.61663E-03   -0.58727E-01 21552   0.106E+00    0.175E-01
DAV:   2    -0.125525207235E+04   -0.15381E-02   -0.15583E-02 24648   0.183E-01    0.964E-02
DAV:   3    -0.125525208117E+04   -0.88186E-05   -0.47019E-04 22476   0.330E-02
  96 F= -.12552521E+04 E0= -.12552521E+04  d E =-.214248E-02  mag=    40.0000
       N       E                     dE             d eps       ncg     rms          rms(c)
DAV:   1    -0.125525280935E+04   -0.73700E-03   -0.15719E-01 21600   0.545E-01    0.904E-02
DAV:   2    -0.125525315227E+04   -0.34292E-03   -0.39779E-03 26808   0.943E-02    0.687E-02
DAV:   3    -0.125525313472E+04    0.17557E-04   -0.16236E-04 14268   0.221E-02
  97 F= -.12552531E+04 E0= -.12552531E+04  d E =-.105355E-02  mag=    40.0000
       N       E                     dE             d eps       ncg     rms          rms(c)
DAV:   1    -0.125525349963E+04   -0.34736E-03   -0.23561E-02 21528   0.211E-01    0.549E-02
DAV:   2    -0.125525353449E+04   -0.34862E-04   -0.55761E-04 21216   0.372E-02
  98 F= -.12552535E+04 E0= -.12552535E+04  d E =-.399777E-03  mag=    40.0000
       N       E                     dE             d eps       ncg     rms          rms(c)
DAV:   1    -0.125525335238E+04    0.14725E-03   -0.10803E-01 21552   0.460E-01    0.318E-01
DAV:   2    -0.125525302492E+04    0.32747E-03   -0.60081E-03 31068   0.144E-01    0.227E-01
DAV:   3    -0.125525297889E+04    0.46031E-04   -0.10108E-03 27648   0.658E-02    0.986E-02
DAV:   4    -0.125525292670E+04    0.52188E-04   -0.18431E-04 15864   0.278E-02
  99 F= -.12552529E+04 E0= -.12552529E+04  d E =0.607795E-03  mag=    40.0000
       N       E                     dE             d eps       ncg     rms          rms(c)
DAV:   1    -0.125525479175E+04   -0.18129E-02   -0.65719E-01 21528   0.113E+00    0.311E-01
DAV:   2    -0.125525548613E+04   -0.69438E-03   -0.23075E-02 29364   0.249E-01    0.277E-01
DAV:   3    -0.125525527924E+04    0.20689E-03   -0.21017E-03 29364   0.895E-02    0.110E-01
DAV:   4    -0.125525520411E+04    0.75135E-04   -0.16799E-04 15156   0.282E-02
 100 F= -.12552552E+04 E0= -.12552552E+04  d E =-.227741E-02  mag=    40.0000
       N       E                     dE             d eps       ncg     rms          rms(c)
DAV:   1    -0.125525564058E+04   -0.36134E-03   -0.29303E-02 21504   0.237E-01    0.914E-02
DAV:   2    -0.125525569264E+04   -0.52057E-04   -0.17722E-03 28992   0.816E-02    0.106E-01
DAV:   3    -0.125525564912E+04    0.43521E-04   -0.20353E-04 16236   0.291E-02
 101 F= -.12552556E+04 E0= -.12552556E+04  d E =-.445016E-03  mag=    40.0000
       N       E                     dE             d eps       ncg     rms          rms(c)
DAV:   1    -0.125525670835E+04   -0.10157E-02   -0.40386E-01 21504   0.886E-01    0.217E-01
DAV:   2    -0.125525729636E+04   -0.58800E-03   -0.12608E-02 28452   0.176E-01    0.165E-01
DAV:   3    -0.125525721365E+04    0.82705E-04   -0.95124E-04 27252   0.621E-02
 102 F= -.12552572E+04 E0= -.12552572E+04  d E =-.156453E-02  mag=    40.0000
       N       E                     dE             d eps       ncg     rms          rms(c)
DAV:   1    -0.125525776797E+04   -0.47161E-03   -0.67420E-02 21624   0.360E-01    0.860E-02
DAV:   2    -0.125525788588E+04   -0.11791E-03   -0.19495E-03 28320   0.714E-02    0.731E-02
DAV:   3    -0.125525787601E+04    0.98619E-05   -0.98797E-05 12900   0.221E-02
 103 F= -.12552579E+04 E0= -.12552579E+04  d E =-.662363E-03  mag=    40.0000
       N       E                     dE             d eps       ncg     rms          rms(c)
DAV:   1    -0.125525844856E+04   -0.56268E-03   -0.81259E-02 21504   0.400E-01    0.120E-01
DAV:   2    -0.125525858671E+04   -0.13816E-03   -0.36620E-03 30396   0.111E-01    0.148E-01
DAV:   3    -0.125525853232E+04    0.54392E-04   -0.28506E-04 18348   0.339E-02
 104 F= -.12552585E+04 E0= -.12552585E+04  d E =-.656306E-03  mag=    40.0000
       N       E                     dE             d eps       ncg     rms          rms(c)
DAV:   1    -0.125525909821E+04   -0.51150E-03   -0.74019E-02 21504   0.381E-01    0.107E-01
DAV:   2    -0.125525925321E+04   -0.15500E-03   -0.26196E-03 30024   0.885E-02    0.107E-01
DAV:   3    -0.125525922600E+04    0.27211E-04   -0.17894E-04 15360   0.302E-02
 105 F= -.12552592E+04 E0= -.12552592E+04  d E =-.693678E-03  mag=    40.0000
       N       E                     dE             d eps       ncg     rms          rms(c)
DAV:   1    -0.125526002341E+04   -0.77020E-03   -0.31805E-01 21504   0.784E-01    0.166E-01
DAV:   2    -0.125526072689E+04   -0.70348E-03   -0.97663E-03 27804   0.153E-01    0.147E-01
DAV:   3    -0.125526067462E+04    0.52267E-04   -0.57531E-04 23628   0.451E-02
 106 F= -.12552607E+04 E0= -.12552607E+04  d E =-.144862E-02  mag=    40.0000
       N       E                     dE             d eps       ncg     rms          rms(c)
DAV:   1    -0.125526107720E+04   -0.35032E-03   -0.35804E-02 21600   0.260E-01    0.673E-02
DAV:   2    -0.125526114579E+04   -0.68588E-04   -0.87916E-04 23136   0.453E-02
 107 F= -.12552611E+04 E0= -.12552611E+04  d E =-.471174E-03  mag=    40.0000
       N       E                     dE             d eps       ncg     rms          rms(c)
DAV:   1    -0.125526113881E+04   -0.61602E-04   -0.95628E-01 21504   0.135E+00    0.365E-01
DAV:   2    -0.125526352816E+04   -0.23894E-02   -0.26878E-02 25956   0.247E-01    0.201E-01
DAV:   3    -0.125526363263E+04   -0.10447E-03   -0.15218E-03 28980   0.708E-02    0.914E-02
DAV:   4    -0.125526354832E+04    0.84309E-04   -0.23674E-04 16260   0.277E-02
 108 F= -.12552635E+04 E0= -.12552635E+04  d E =-.240252E-02  mag=    40.0000
       N       E                     dE             d eps       ncg     rms          rms(c)
DAV:   1    -0.125526241952E+04    0.12131E-02   -0.16063E+00 21552   0.175E+00    0.315E-01
DAV:   2    -0.125526675815E+04   -0.43386E-02   -0.41832E-02 25176   0.298E-01    0.181E-01
DAV:   3    -0.125526685567E+04   -0.97514E-04   -0.17112E-03 29880   0.591E-02    0.968E-02
DAV:   4    -0.125526674942E+04    0.10624E-03   -0.20241E-04 16080   0.277E-02    0.669E-02
DAV:   5    -0.125526672099E+04    0.28431E-04   -0.32123E-04 15852   0.291E-02
 109 F= -.12552667E+04 E0= -.12552667E+04  d E =-.317268E-02  mag=    40.0000
       N       E                     dE             d eps       ncg     rms          rms(c)
DAV:   1    -0.125526610795E+04    0.64147E-03   -0.21266E-01 21504   0.650E-01    0.343E-01
DAV:   2    -0.125526580904E+04    0.29892E-03   -0.97555E-03 29208   0.160E-01    0.206E-01
DAV:   3    -0.125526577252E+04    0.36515E-04   -0.13568E-03 28860   0.771E-02    0.852E-02
DAV:   4    -0.125526573433E+04    0.38192E-04   -0.25139E-04 17280   0.292E-02
 110 F= -.12552657E+04 E0= -.12552657E+04  d E =0.986664E-03  mag=    40.0000
       N       E                     dE             d eps       ncg     rms          rms(c)
DAV:   1    -0.125526653470E+04   -0.76218E-03   -0.97612E-02 21504   0.438E-01    0.122E-01
DAV:   2    -0.125526665746E+04   -0.12275E-03   -0.33216E-03 26784   0.942E-02    0.937E-02
DAV:   3    -0.125526663707E+04    0.20388E-04   -0.18541E-04 15348   0.331E-02
 111 F= -.12552666E+04 E0= -.12552666E+04  d E =-.902742E-03  mag=    40.0000
       N       E                     dE             d eps       ncg     rms          rms(c)
DAV:   1    -0.125526727038E+04   -0.61292E-03   -0.37195E-01 21600   0.841E-01    0.140E-01
DAV:   2    -0.125526817330E+04   -0.90292E-03   -0.98606E-03 25452   0.144E-01    0.801E-02
DAV:   3    -0.125526816580E+04    0.75061E-05   -0.37843E-04 20760   0.316E-02
 112 F= -.12552682E+04 E0= -.12552682E+04  d E =-.152873E-02  mag=    40.0000
       N       E                     dE             d eps       ncg     rms          rms(c)
DAV:   1    -0.125526858999E+04   -0.41669E-03   -0.64998E-01 21600   0.111E+00    0.156E-01
DAV:   2    -0.125527012741E+04   -0.15374E-02   -0.16546E-02 25284   0.184E-01    0.968E-02
DAV:   3    -0.125527009961E+04    0.27793E-04   -0.60194E-04 24168   0.356E-02
 113 F= -.12552701E+04 E0= -.12552701E+04  d E =-.193382E-02  mag=    40.0000
       N       E                     dE             d eps       ncg     rms          rms(c)
DAV:   1    -0.125527055618E+04   -0.42877E-03   -0.49067E-02 21504   0.305E-01    0.740E-02
DAV:   2    -0.125527060606E+04   -0.49875E-04   -0.12731E-03 25728   0.570E-02    0.495E-02
DAV:   3    -0.125527059142E+04    0.14634E-04   -0.87355E-05 13992   0.224E-02
 114 F= -.12552706E+04 E0= -.12552706E+04  d E =-.491807E-03  mag=    40.0000
       N       E                     dE             d eps       ncg     rms          rms(c)
DAV:   1    -0.125527113766E+04   -0.53160E-03   -0.13060E-01 21600   0.497E-01    0.794E-02
DAV:   2    -0.125527145716E+04   -0.31950E-03   -0.33433E-03 26748   0.835E-02    0.518E-02
DAV:   3    -0.125527145230E+04    0.48609E-05   -0.98039E-05 13140   0.186E-02
 115 F= -.12552715E+04 E0= -.12552715E+04  d E =-.860874E-03  mag=    40.0000
       N       E                     dE             d eps       ncg     rms          rms(c)
DAV:   1    -0.125527155195E+04   -0.94791E-04   -0.86145E-01 21552   0.128E+00    0.228E-01
DAV:   2    -0.125527357388E+04   -0.20219E-02   -0.23029E-02 25500   0.222E-01    0.143E-01
DAV:   3    -0.125527354930E+04    0.24587E-04   -0.88912E-04 27576   0.515E-02
 116 F= -.12552735E+04 E0= -.12552735E+04  d E =-.209700E-02  mag=    40.0000
       N       E                     dE             d eps       ncg     rms          rms(c)
DAV:   1    -0.125526815846E+04    0.54154E-02   -0.40235E+00 21600   0.277E+00    0.419E-01
DAV:   2    -0.125527828843E+04   -0.10130E-01   -0.10359E-01 24216   0.463E-01    0.241E-01
DAV:   3    -0.125527830478E+04   -0.16352E-04   -0.39236E-03 31008   0.819E-02    0.149E-01
DAV:   4    -0.125527800883E+04    0.29595E-03   -0.69396E-04 23832   0.449E-02    0.819E-02
DAV:   5    -0.125527795551E+04    0.53317E-04   -0.44745E-04 20052   0.366E-02
 117 F= -.12552780E+04 E0= -.12552780E+04  d E =-.440622E-02  mag=    40.0000
       N       E                     dE             d eps       ncg     rms          rms(c)
DAV:   1    -0.125527015010E+04    0.78587E-02   -0.20596E+00 21504   0.199E+00    0.312E-01
DAV:   2    -0.125527519757E+04   -0.50475E-02   -0.54869E-02 24780   0.343E-01    0.184E-01
DAV:   3    -0.125527515841E+04    0.39153E-04   -0.19417E-03 30792   0.633E-02    0.117E-01
DAV:   4    -0.125527501114E+04    0.14728E-03   -0.21165E-04 15456   0.290E-02    0.776E-02
DAV:   5    -0.125527495625E+04    0.54889E-04   -0.24176E-04 15384   0.282E-02
 118 F= -.12552750E+04 E0= -.12552750E+04  d E =0.299927E-02  mag=    40.0000
       N       E                     dE             d eps       ncg     rms          rms(c)
DAV:   1    -0.125527492209E+04    0.89044E-04   -0.81243E-01 21600   0.125E+00    0.168E-01
DAV:   2    -0.125527705724E+04   -0.21351E-02   -0.21357E-02 24684   0.209E-01    0.941E-02
DAV:   3    -0.125527707060E+04   -0.13365E-04   -0.71981E-04 24960   0.361E-02
 119 F= -.12552771E+04 E0= -.12552771E+04  d E =-.211436E-02  mag=    40.0000
       N       E                     dE             d eps       ncg     rms          rms(c)
DAV:   1    -0.125527746482E+04   -0.40758E-03   -0.92335E-02 21504   0.419E-01    0.962E-02
DAV:   2    -0.125527761244E+04   -0.14762E-03   -0.26779E-03 28284   0.925E-02    0.976E-02
DAV:   3    -0.125527759321E+04    0.19225E-04   -0.28606E-04 17628   0.299E-02
 120 F= -.12552776E+04 E0= -.12552776E+04  d E =-.522610E-03  mag=    40.0000
       N       E                     dE             d eps       ncg     rms          rms(c)
DAV:   1    -0.125527813471E+04   -0.52227E-03   -0.11606E-01 21552   0.471E-01    0.100E-01
DAV:   2    -0.125527843101E+04   -0.29631E-03   -0.36528E-03 28404   0.987E-02    0.938E-02
DAV:   3    -0.125527839918E+04    0.31834E-04   -0.22453E-04 15852   0.321E-02
 121 F= -.12552784E+04 E0= -.12552784E+04  d E =-.805964E-03  mag=    40.0000
       N       E                     dE             d eps       ncg     rms          rms(c)
DAV:   1    -0.125527896283E+04   -0.53182E-03   -0.22225E-01 21504   0.651E-01    0.123E-01
DAV:   2    -0.125527944956E+04   -0.48672E-03   -0.59709E-03 26796   0.118E-01    0.749E-02
DAV:   3    -0.125527944344E+04    0.61203E-05   -0.39432E-04 21192   0.340E-02
 122 F= -.12552794E+04 E0= -.12552794E+04  d E =-.104426E-02  mag=    40.0000
       N       E                     dE             d eps       ncg     rms          rms(c)
DAV:   1    -0.125527996484E+04   -0.51528E-03   -0.16588E-01 21552   0.561E-01    0.965E-02
DAV:   2    -0.125528033968E+04   -0.37483E-03   -0.44452E-03 26976   0.100E-01    0.737E-02
DAV:   3    -0.125528032500E+04    0.14675E-04   -0.18975E-04 15444   0.275E-02
 123 F= -.12552803E+04 E0= -.12552803E+04  d E =-.881565E-03  mag=    40.0000
       N       E                     dE             d eps       ncg     rms          rms(c)
DAV:   1    -0.125528079389E+04   -0.45421E-03   -0.28169E-01 21552   0.730E-01    0.117E-01
DAV:   2    -0.125528148345E+04   -0.68956E-03   -0.72348E-03 25176   0.122E-01    0.722E-02
DAV:   3    -0.125528147340E+04    0.10050E-04   -0.23171E-04 18024   0.251E-02
 124 F= -.12552815E+04 E0= -.12552815E+04  d E =-.114840E-02  mag=    40.0000
       N       E                     dE             d eps       ncg     rms          rms(c)
DAV:   1    -0.125528107940E+04    0.40404E-03   -0.30400E-02 21504   0.244E-01    0.640E-02
DAV:   2    -0.125528112352E+04   -0.44118E-04   -0.10923E-03 24972   0.516E-02    0.433E-02
DAV:   3    -0.125528112114E+04    0.23771E-05   -0.69992E-05 12108   0.192E-02
 125 F= -.12552811E+04 E0= -.12552811E+04  d E =0.352253E-03  mag=    40.0000
       N       E                     dE             d eps       ncg     rms          rms(c)
DAV:   1    -0.125528148992E+04   -0.36640E-03   -0.35041E-01 21600   0.816E-01    0.128E-01
DAV:   2    -0.125528239104E+04   -0.90113E-03   -0.92665E-03 25944   0.142E-01    0.768E-02
DAV:   3    -0.125528240819E+04   -0.17148E-04   -0.45038E-04 21516   0.331E-02
 126 F= -.12552824E+04 E0= -.12552824E+04  d E =-.128705E-02  mag=    40.0000
       N       E                     dE             d eps       ncg     rms          rms(c)
DAV:   1    -0.125528276325E+04   -0.37221E-03   -0.44672E-02 21552   0.292E-01    0.577E-02
DAV:   2    -0.125528286126E+04   -0.98010E-04   -0.12822E-03 25128   0.574E-02    0.490E-02
DAV:   3    -0.125528285156E+04    0.96985E-05   -0.64144E-05 11820   0.167E-02
 127 F= -.12552829E+04 E0= -.12552829E+04  d E =-.443369E-03  mag=    40.0000
       N       E                     dE             d eps       ncg     rms          rms(c)
DAV:   1    -0.125528334444E+04   -0.48318E-03   -0.15948E-01 21600   0.550E-01    0.987E-02
DAV:   2    -0.125528370902E+04   -0.36458E-03   -0.42496E-03 26568   0.942E-02    0.618E-02
DAV:   3    -0.125528369489E+04    0.14128E-04   -0.14438E-04 14916   0.241E-02
 128 F= -.12552837E+04 E0= -.12552837E+04  d E =-.843334E-03  mag=    40.0000
       N       E                     dE             d eps       ncg     rms          rms(c)
DAV:   1    -0.125528415179E+04   -0.44277E-03   -0.14794E-01 21600   0.529E-01    0.889E-02
DAV:   2    -0.125528451867E+04   -0.36688E-03   -0.38907E-03 26508   0.940E-02    0.702E-02
DAV:   3    -0.125528451048E+04    0.81865E-05   -0.15656E-04 14856   0.246E-02
 129 F= -.12552845E+04 E0= -.12552845E+04  d E =-.815590E-03  mag=    40.0000
       N       E                     dE             d eps       ncg     rms          rms(c)
DAV:   1    -0.125528484138E+04   -0.32271E-03   -0.28197E-02 21516   0.232E-01    0.579E-02
DAV:   2    -0.125528487973E+04   -0.38345E-04   -0.78562E-04 23940   0.429E-02
 130 F= -.12552849E+04 E0= -.12552849E+04  d E =-.369241E-03  mag=    40.0000
       N       E                     dE             d eps       ncg     rms          rms(c)
DAV:   1    -0.125528511031E+04   -0.26892E-03   -0.35905E-01 21600   0.823E-01    0.170E-01
DAV:   2    -0.125528613245E+04   -0.10221E-02   -0.96192E-03 26712   0.146E-01    0.119E-01
DAV:   3    -0.125528615372E+04   -0.21278E-04   -0.42484E-04 21468   0.359E-02
 131 F= -.12552862E+04 E0= -.12552862E+04  d E =-.127400E-02  mag=    40.0000
       N       E                     dE             d eps       ncg     rms          rms(c)
DAV:   1    -0.125528418020E+04    0.19523E-02   -0.29002E-01 21552   0.744E-01    0.144E-01
DAV:   2    -0.125528499139E+04   -0.81119E-03   -0.84063E-03 26256   0.135E-01    0.910E-02
DAV:   3    -0.125528501201E+04   -0.20618E-04   -0.35320E-04 19356   0.351E-02
 132 F= -.12552850E+04 E0= -.12552850E+04  d E =0.114172E-02  mag=    40.0000
       N       E                     dE             d eps       ncg     rms          rms(c)
DAV:   1    -0.125528522604E+04   -0.23465E-03   -0.42546E-01 21600   0.899E-01    0.135E-01
DAV:   2    -0.125528636662E+04   -0.11406E-02   -0.11482E-02 24948   0.154E-01    0.818E-02
DAV:   3    -0.125528638737E+04   -0.20750E-04   -0.36131E-04 19464   0.339E-02
 133 F= -.12552864E+04 E0= -.12552864E+04  d E =-.137536E-02  mag=    40.0000
       N       E                     dE             d eps       ncg     rms          rms(c)
DAV:   1    -0.125528676901E+04   -0.40239E-03   -0.56586E-02 21504   0.326E-01    0.585E-02
DAV:   2    -0.125528688098E+04   -0.11196E-03   -0.14281E-03 24636   0.546E-02    0.409E-02
DAV:   3    -0.125528687022E+04    0.10753E-04   -0.44201E-05 11652   0.114E-02
 134 F= -.12552869E+04 E0= -.12552869E+04  d E =-.482854E-03  mag=    40.0000
       N       E                     dE             d eps       ncg     rms          rms(c)
DAV:   1    -0.125528718871E+04   -0.30773E-03   -0.37651E-01 21600   0.844E-01    0.130E-01
DAV:   2    -0.125528813563E+04   -0.94692E-03   -0.98039E-03 25728   0.142E-01    0.785E-02
DAV:   3    -0.125528813834E+04   -0.27060E-05   -0.37221E-04 19980   0.305E-02
 135 F= -.12552881E+04 E0= -.12552881E+04  d E =-.126811E-02  mag=    40.0000
       N       E                     dE             d eps       ncg     rms          rms(c)
[...]
       N       E                     dE             d eps       ncg     rms          rms(c)
DAV:   1    -0.125531695336E+04    0.16062E-03   -0.23511E-02 21696   0.217E-01    0.670E-02
DAV:   2    -0.125531695885E+04   -0.54959E-05   -0.85584E-04 22452   0.479E-02
 212 F= -.12553170E+04 E0= -.12553170E+04  d E =0.149030E-03  mag=    40.0000
       N       E                     dE             d eps       ncg     rms          rms(c)
DAV:   1    -0.125531704016E+04   -0.86801E-04   -0.18876E-01 21504   0.600E-01    0.114E-01
DAV:   2    -0.125531747454E+04   -0.43438E-03   -0.54168E-03 26580   0.108E-01    0.767E-02
DAV:   3    -0.125531746109E+04    0.13448E-04   -0.17428E-04 15312   0.251E-02
 213 F= -.12553175E+04 E0= -.12553175E+04  d E =-.502235E-03  mag=    40.0000
       N       E                     dE             d eps       ncg     rms          rms(c)
DAV:   1    -0.125531773358E+04   -0.25904E-03   -0.29573E-02 21504   0.239E-01    0.709E-02
DAV:   2    -0.125531776180E+04   -0.28227E-04   -0.10291E-03 25128   0.504E-02    0.453E-02
DAV:   3    -0.125531775335E+04    0.84500E-05   -0.66910E-05 12204   0.197E-02
 214 F= -.12553178E+04 E0= -.12553178E+04  d E =-.292263E-03  mag=    40.0000
       N       E                     dE             d eps       ncg     rms          rms(c)
DAV:   1    -0.125531791860E+04   -0.15680E-03   -0.27588E-02 21492   0.229E-01    0.445E-02
DAV:   2    -0.125531797234E+04   -0.53738E-04   -0.76448E-04 24384   0.423E-02
 215 F= -.12553180E+04 E0= -.12553180E+04  d E =-.218984E-03  mag=    40.0000
       N       E                     dE             d eps       ncg     rms          rms(c)
DAV:   1    -0.125531813030E+04   -0.21170E-03   -0.82112E-02 21636   0.393E-01    0.807E-02
DAV:   2    -0.125531834940E+04   -0.21910E-03   -0.23386E-03 27324   0.735E-02    0.618E-02
DAV:   3    -0.125531834612E+04    0.32780E-05   -0.95222E-05 12840   0.189E-02
 216 F= -.12553183E+04 E0= -.12553183E+04  d E =-.373788E-03  mag=    40.0000
       N       E                     dE             d eps       ncg     rms          rms(c)
DAV:   1    -0.125531852575E+04   -0.17635E-03   -0.51058E-02 21504   0.312E-01    0.629E-02
DAV:   2    -0.125531864036E+04   -0.11461E-03   -0.14552E-03 26340   0.569E-02    0.446E-02
DAV:   3    -0.125531863478E+04    0.55842E-05   -0.65202E-05 11688   0.167E-02
 217 F= -.12553186E+04 E0= -.12553186E+04  d E =-.288655E-03  mag=    40.0000
       N       E                     dE             d eps       ncg     rms          rms(c)
DAV:   1    -0.125531873672E+04   -0.96357E-04   -0.81270E-03 21192   0.123E-01    0.274E-02
DAV:   2    -0.125531875264E+04   -0.15917E-04   -0.18882E-04 12768   0.222E-02
 218 F= -.12553188E+04 E0= -.12553188E+04  d E =-.117859E-03  mag=    40.0000
       N       E                     dE             d eps       ncg     rms          rms(c)
DAV:   1    -0.125531580569E+04    0.29310E-02   -0.16538E+00 21600   0.177E+00    0.315E-01
DAV:   2    -0.125532035497E+04   -0.45493E-02   -0.43631E-02 25596   0.300E-01    0.185E-01
DAV:   3    -0.125532050090E+04   -0.14594E-03   -0.21351E-03 31020   0.695E-02    0.108E-01
DAV:   4    -0.125532041875E+04    0.82149E-04   -0.14684E-04 14652   0.246E-02
 219 F= -.12553204E+04 E0= -.12553204E+04  d E =-.166612E-02  mag=    40.0000
       N       E                     dE             d eps       ncg     rms          rms(c)
DAV:   1    -0.125532057196E+04   -0.71061E-04   -0.12103E-01 21504   0.476E-01    0.813E-02
DAV:   2    -0.125532080808E+04   -0.23611E-03   -0.28792E-03 26832   0.822E-02    0.484E-02
DAV:   3    -0.125532080802E+04    0.58630E-07   -0.21040E-04 14400   0.229E-02
 220 F= -.12553208E+04 E0= -.12553208E+04  d E =-.389263E-03  mag=    40.0000
       N       E                     dE             d eps       ncg     rms          rms(c)
DAV:   1    -0.125532063081E+04    0.17726E-03   -0.36475E-02 21504   0.267E-01    0.119E-01
DAV:   2    -0.125532068022E+04   -0.49409E-04   -0.16600E-03 29124   0.749E-02    0.939E-02
DAV:   3    -0.125532067516E+04    0.50613E-05   -0.22366E-04 16416   0.305E-02
 221 F= -.12553207E+04 E0= -.12553207E+04  d E =0.132857E-03  mag=    40.0000
       N       E                     dE             d eps       ncg     rms          rms(c)
DAV:   1    -0.125532082393E+04   -0.14371E-03   -0.10135E-01 21504   0.443E-01    0.975E-02
DAV:   2    -0.125532105274E+04   -0.22881E-03   -0.32687E-03 27324   0.844E-02    0.628E-02
DAV:   3    -0.125532103629E+04    0.16447E-04   -0.12549E-04 13296   0.247E-02
 222 F= -.12553210E+04 E0= -.12553210E+04  d E =-.361132E-03  mag=    40.0000
       N       E                     dE             d eps       ncg     rms          rms(c)
DAV:   1    -0.125532119159E+04   -0.13885E-03   -0.21567E-02 21456   0.202E-01    0.365E-02
DAV:   2    -0.125532124278E+04   -0.51190E-04   -0.66574E-04 20880   0.398E-02
 223 F= -.12553212E+04 E0= -.12553212E+04  d E =-.206484E-03  mag=    40.0000
       N       E                     dE             d eps       ncg     rms          rms(c)
DAV:   1    -0.125532135771E+04   -0.16613E-03   -0.59276E-03 21924   0.110E-01    0.444E-02
DAV:   2    -0.125532134064E+04    0.17072E-04   -0.23149E-04 14148   0.284E-02
 224 F= -.12553213E+04 E0= -.12553213E+04  d E =-.978640E-04  mag=    40.0000
       N       E                     dE             d eps       ncg     rms          rms(c)
DAV:   1    -0.125532123032E+04    0.12739E-03   -0.71587E-03 21624   0.121E-01    0.424E-02
DAV:   2    -0.125532122493E+04    0.53898E-05   -0.24074E-04 14376   0.301E-02
 225 F= -.12553212E+04 E0= -.12553212E+04  d E =0.115709E-03  mag=    40.0000
       N       E                     dE             d eps       ncg     rms          rms(c)
DAV:   1    -0.125532140445E+04   -0.17413E-03   -0.12701E-01 21504   0.492E-01    0.926E-02
DAV:   2    -0.125532167681E+04   -0.27235E-03   -0.35789E-03 27276   0.911E-02    0.544E-02
DAV:   3    -0.125532167049E+04    0.63142E-05   -0.13010E-04 14496   0.238E-02
 226 F= -.12553217E+04 E0= -.12553217E+04  d E =-.445562E-03  mag=    40.0000
       N       E                     dE             d eps       ncg     rms          rms(c)
DAV:   1    -0.125532181575E+04   -0.13895E-03   -0.40927E-02 21504   0.280E-01    0.512E-02
DAV:   2    -0.125532190416E+04   -0.88411E-04   -0.11744E-03 25440   0.509E-02    0.387E-02
DAV:   3    -0.125532189882E+04    0.53481E-05   -0.48434E-05 11604   0.148E-02
 227 F= -.12553219E+04 E0= -.12553219E+04  d E =-.228323E-03  mag=    40.0000
       N       E                     dE             d eps       ncg     rms          rms(c)
DAV:   1    -0.125532205387E+04   -0.14971E-03   -0.47989E-02 21468   0.300E-01    0.485E-02
DAV:   2    -0.125532217417E+04   -0.12029E-03   -0.12526E-03 23976   0.504E-02    0.323E-02
DAV:   3    -0.125532217159E+04    0.25810E-05   -0.37789E-05 11472   0.124E-02
 228 F= -.12553222E+04 E0= -.12553222E+04  d E =-.272770E-03  mag=    40.0000
       N       E                     dE             d eps       ncg     rms          rms(c)
DAV:   1    -0.125532232846E+04   -0.15429E-03   -0.56744E-02 21504   0.327E-01    0.536E-02
DAV:   2    -0.125532246488E+04   -0.13642E-03   -0.14623E-03 25212   0.539E-02    0.359E-02
DAV:   3    -0.125532246156E+04    0.33158E-05   -0.43903E-05 11652   0.125E-02
 229 F= -.12553225E+04 E0= -.12553225E+04  d E =-.289979E-03  mag=    40.0000
       N       E                     dE             d eps       ncg     rms          rms(c)
DAV:   1    -0.125532258730E+04   -0.12242E-03   -0.22279E-02 21348   0.205E-01    0.354E-02
DAV:   2    -0.125532263819E+04   -0.50887E-04   -0.55661E-04 20172   0.333E-02
 230 F= -.12553226E+04 E0= -.12553226E+04  d E =-.176626E-03  mag=    40.0000
       N       E                     dE             d eps       ncg     rms          rms(c)
DAV:   1    -0.125532100496E+04    0.15823E-02   -0.99773E-01 21600   0.137E+00    0.262E-01
DAV:   2    -0.125532377011E+04   -0.27651E-02   -0.26562E-02 25944   0.235E-01    0.157E-01
DAV:   3    -0.125532384292E+04   -0.72812E-04   -0.11861E-03 28872   0.535E-02    0.787E-02
DAV:   4    -0.125532378276E+04    0.60162E-04   -0.11338E-04 13548   0.220E-02
 231 F= -.12553238E+04 E0= -.12553238E+04  d E =-.114457E-02  mag=    40.0000
       N       E                     dE             d eps       ncg     rms          rms(c)
DAV:   1    -0.125531998231E+04    0.38606E-02   -0.93662E-01 21600   0.133E+00    0.233E-01
DAV:   2    -0.125532267713E+04   -0.26948E-02   -0.25599E-02 24972   0.230E-01    0.133E-01
DAV:   3    -0.125532274880E+04   -0.71667E-04   -0.95790E-04 27684   0.461E-02
 232 F= -.12553227E+04 E0= -.12553227E+04  d E =0.103396E-02  mag=    40.0000
       N       E                     dE             d eps       ncg     rms          rms(c)
DAV:   1    -0.125532287738E+04   -0.20025E-03   -0.53875E-02 21540   0.328E-01    0.977E-02
DAV:   2    -0.125532293723E+04   -0.59843E-04   -0.21227E-03 27864   0.692E-02    0.710E-02
DAV:   3    -0.125532292105E+04    0.16177E-04   -0.11084E-04 13296   0.235E-02
 233 F= -.12553229E+04 E0= -.12553229E+04  d E =-.172252E-03  mag=    40.0000
       N       E                     dE             d eps       ncg     rms          rms(c)
DAV:   1    -0.125532290638E+04    0.30846E-04   -0.21735E-01 21600   0.640E-01    0.968E-02
DAV:   2    -0.125532348113E+04   -0.57475E-03   -0.58098E-03 26448   0.109E-01    0.638E-02
DAV:   3    -0.125532348057E+04    0.55690E-06   -0.21162E-04 16200   0.248E-02
 234 F= -.12553235E+04 E0= -.12553235E+04  d E =-.559523E-03  mag=    40.0000
       N       E                     dE             d eps       ncg     rms          rms(c)
DAV:   1    -0.125532361544E+04   -0.13431E-03   -0.26533E-02 21504   0.225E-01    0.477E-02
DAV:   2    -0.125532366167E+04   -0.46233E-04   -0.73610E-04 23064   0.409E-02
 235 F= -.12553237E+04 E0= -.12553237E+04  d E =-.181101E-03  mag=    40.0000
       N       E                     dE             d eps       ncg     rms          rms(c)
DAV:   1    -0.125532382612E+04   -0.21068E-03   -0.67030E-02 21504   0.359E-01    0.106E-01
DAV:   2    -0.125532393493E+04   -0.10881E-03   -0.23471E-03 29220   0.777E-02    0.906E-02
DAV:   3    -0.125532390798E+04    0.26948E-04   -0.15747E-04 16032   0.277E-02
 236 F= -.12553239E+04 E0= -.12553239E+04  d E =-.246308E-03  mag=    40.0000
       N       E                     dE             d eps       ncg     rms          rms(c)
DAV:   1    -0.125532387250E+04    0.62429E-04   -0.22691E-03 20772   0.678E-02    0.262E-02
DAV:   2    -0.125532387597E+04   -0.34676E-05   -0.94252E-05 11316   0.172E-02
 237 F= -.12553239E+04 E0= -.12553239E+04  d E =0.320138E-04  mag=    40.0000
       N       E                     dE             d eps       ncg     rms          rms(c)
DAV:   1    -0.125532386904E+04    0.34614E-05   -0.90918E-05 11256   0.177E-02    0.137E-02
DAV:   2    -0.125532387108E+04   -0.20408E-05   -0.18459E-05 11100   0.955E-03
 238 F= -.12553239E+04 E0= -.12553239E+04  d E =0.488826E-05  mag=    40.0000
       N       E                     dE             d eps       ncg     rms          rms(c)
DAV:   1    -0.125532392812E+04   -0.59083E-04   -0.12511E-01 21504   0.497E-01    0.171E-01
DAV:   2    -0.125532405574E+04   -0.12762E-03   -0.50774E-03 29952   0.122E-01    0.159E-01
DAV:   3    -0.125532400662E+04    0.49117E-04   -0.47259E-04 22140   0.442E-02
 239 F= -.12553240E+04 E0= -.12553240E+04  d E =-.135544E-03  mag=    40.0000
       N       E                     dE             d eps       ncg     rms          rms(c)
DAV:   1    -0.125532500865E+04   -0.95292E-03   -0.60516E-02 22488   0.374E-01    0.261E-01
DAV:   2    -0.125532426307E+04    0.74558E-03   -0.63154E-03 31740   0.150E-01    0.229E-01
DAV:   3    -0.125532410530E+04    0.15778E-03   -0.10090E-03 28164   0.616E-02    0.740E-02
DAV:   4    -0.125532407194E+04    0.33358E-04   -0.85095E-05 14748   0.220E-02
 240 F= -.12553241E+04 E0= -.12553241E+04  d E =-.653167E-04  mag=    40.0000
       N       E                     dE             d eps       ncg     rms          rms(c)
DAV:   1    -0.125532414314E+04   -0.37845E-04   -0.93257E-02 21504   0.420E-01    0.853E-02
DAV:   2    -0.125532439520E+04   -0.25206E-03   -0.26795E-03 26856   0.785E-02    0.614E-02
DAV:   3    -0.125532439434E+04    0.86171E-06   -0.91111E-05 13440   0.213E-02
 241 F= -.12553244E+04 E0= -.12553244E+04  d E =-.322401E-03  mag=    40.0000
       N       E                     dE             d eps       ncg     rms          rms(c)
DAV:   1    -0.125532450781E+04   -0.11261E-03   -0.16888E-02 21480   0.181E-01    0.477E-02
DAV:   2    -0.125532453914E+04   -0.31335E-04   -0.61676E-04 21240   0.393E-02
 242 F= -.12553245E+04 E0= -.12553245E+04  d E =-.144804E-03  mag=    40.0000
       N       E                     dE             d eps       ncg     rms          rms(c)
DAV:   1    -0.125532467701E+04   -0.16921E-03   -0.53313E-02 21504   0.320E-01    0.764E-02
DAV:   2    -0.125532478971E+04   -0.11269E-03   -0.17713E-03 28476   0.661E-02    0.681E-02
DAV:   3    -0.125532477117E+04    0.18539E-04   -0.91090E-05 13440   0.207E-02
 243 F= -.12553248E+04 E0= -.12553248E+04  d E =-.232023E-03  mag=    40.0000
       N       E                     dE             d eps       ncg     rms          rms(c)
DAV:   1    -0.125532474163E+04    0.48079E-04   -0.57804E-04 18384   0.340E-02    0.198E-02
DAV:   2    -0.125532474465E+04   -0.30222E-05   -0.29605E-05 11004   0.882E-03
 244 F= -.12553247E+04 E0= -.12553247E+04  d E =0.265180E-04  mag=    40.0000
       N       E                     dE             d eps       ncg     rms          rms(c)
DAV:   1    -0.125532472568E+04    0.15943E-04   -0.29469E-04 15720   0.252E-02    0.121E-02
DAV:   2    -0.125532472697E+04   -0.12816E-05   -0.14944E-05 10968   0.763E-03
 245 F= -.12553247E+04 E0= -.12553247E+04  d E =0.176833E-04  mag=    40.0000
       N       E                     dE             d eps       ncg     rms          rms(c)
DAV:   1    -0.125532496810E+04   -0.24242E-03   -0.95064E-02 21504   0.429E-01    0.988E-02
DAV:   2    -0.125532510812E+04   -0.14001E-03   -0.29548E-03 28416   0.843E-02    0.811E-02
DAV:   3    -0.125532508575E+04    0.22369E-04   -0.15234E-04 14664   0.278E-02
 246 F= -.12553251E+04 E0= -.12553251E+04  d E =-.358782E-03  mag=    40.0000
       N       E                     dE             d eps       ncg     rms          rms(c)
DAV:   1    -0.125532519368E+04   -0.85564E-04   -0.86470E-02 21504   0.406E-01    0.854E-02
DAV:   2    -0.125532537590E+04   -0.18221E-03   -0.24016E-03 27288   0.729E-02    0.587E-02
DAV:   3    -0.125532536981E+04    0.60836E-05   -0.86769E-05 12996   0.191E-02
 247 F= -.12553254E+04 E0= -.12553254E+04  d E =-.284063E-03  mag=    40.0000
       N       E                     dE             d eps       ncg     rms          rms(c)
DAV:   1    -0.125532550815E+04   -0.13226E-03   -0.21856E-02 21504   0.205E-01    0.537E-02
DAV:   2    -0.125532553848E+04   -0.30331E-04   -0.64288E-04 21684   0.386E-02
 248 F= -.12553255E+04 E0= -.12553255E+04  d E =-.168673E-03  mag=    40.0000
       N       E                     dE             d eps       ncg     rms          rms(c)
DAV:   1    -0.125532575493E+04   -0.24677E-03   -0.39915E-02 21540   0.283E-01    0.134E-01
DAV:   2    -0.125532571302E+04    0.41909E-04   -0.16814E-03 29388   0.668E-02    0.878E-02
DAV:   3    -0.125532568808E+04    0.24942E-04   -0.18030E-04 17532   0.315E-02
 249 F= -.12553257E+04 E0= -.12553257E+04  d E =-.149592E-03  mag=    40.0000
       N       E                     dE             d eps       ncg     rms          rms(c)
DAV:   1    -0.125532573566E+04   -0.22641E-04   -0.10782E-02 21696   0.147E-01    0.642E-02
DAV:   2    -0.125532572322E+04    0.12437E-04   -0.41128E-04 18552   0.359E-02
 250 F= -.12553257E+04 E0= -.12553257E+04  d E =-.351449E-04  mag=    40.0000
       N       E                     dE             d eps       ncg     rms          rms(c)
DAV:   1    -0.125532594457E+04   -0.20892E-03   -0.16027E-02 21936   0.190E-01    0.993E-02
DAV:   2    -0.125532581838E+04    0.12619E-03   -0.87327E-04 23304   0.503E-02    0.548E-02
DAV:   3    -0.125532579993E+04    0.18449E-04   -0.12718E-04 15204   0.280E-02
 251 F= -.12553258E+04 E0= -.12553258E+04  d E =-.767103E-04  mag=    40.0000
       N       E                     dE             d eps       ncg     rms          rms(c)
DAV:   1    -0.125532619540E+04   -0.37702E-03   -0.12355E-01 21504   0.511E-01    0.220E-01
DAV:   2    -0.125532584941E+04    0.34599E-03   -0.47254E-03 28848   0.115E-01    0.137E-01
DAV:   3    -0.125532574305E+04    0.10636E-03   -0.61153E-04 23652   0.511E-02    0.739E-02
DAV:   4    -0.125532570656E+04    0.36492E-04   -0.19849E-04 13860   0.258E-02
 252 F= -.12553257E+04 E0= -.12553257E+04  d E =0.933727E-04  mag=    40.0000
       N       E                     dE             d eps       ncg     rms          rms(c)
DAV:   1    -0.125532785848E+04   -0.21154E-02   -0.29319E-01 21504   0.792E-01    0.420E-01
DAV:   2    -0.125532625652E+04    0.16020E-02   -0.13056E-02 29976   0.202E-01    0.283E-01
DAV:   3    -0.125532593147E+04    0.32504E-03   -0.22354E-03 30384   0.957E-02    0.134E-01
DAV:   4    -0.125532577232E+04    0.15915E-03   -0.64605E-04 24576   0.439E-02    0.874E-02
DAV:   5    -0.125532573090E+04    0.41427E-04   -0.95871E-05 12960   0.226E-02
 253 F= -.12553257E+04 E0= -.12553257E+04  d E =-.243371E-04  mag=    40.0000
       N       E                     dE             d eps       ncg     rms          rms(c)
DAV:   1    -0.125532654122E+04   -0.76890E-03   -0.13363E-01 21924   0.532E-01    0.218E-01
DAV:   2    -0.125532623098E+04    0.31024E-03   -0.54752E-03 29988   0.125E-01    0.151E-01
DAV:   3    -0.125532614028E+04    0.90698E-04   -0.60492E-04 23772   0.559E-02
 254 F= -.12553261E+04 E0= -.12553261E+04  d E =-.409387E-03  mag=    40.0000
       N       E                     dE             d eps       ncg     rms          rms(c)
DAV:   1    -0.125532618539E+04    0.45595E-04   -0.12230E-02 22164   0.160E-01    0.959E-02
DAV:   2    -0.125532614564E+04    0.39750E-04   -0.10719E-03 28800   0.565E-02    0.875E-02
DAV:   3    -0.125532610886E+04    0.36772E-04   -0.12023E-04 14028   0.252E-02
 255 F= -.12553261E+04 E0= -.12553261E+04  d E =0.314196E-04  mag=    40.0000
       N       E                     dE             d eps       ncg     rms          rms(c)
DAV:   1    -0.125532617734E+04   -0.31709E-04   -0.41224E-02 21504   0.285E-01    0.151E-01
DAV:   2    -0.125532610077E+04    0.76570E-04   -0.17227E-03 29376   0.786E-02    0.126E-01
DAV:   3    -0.125532605410E+04    0.46670E-04   -0.26347E-04 18588   0.328E-02
 256 F= -.12553261E+04 E0= -.12553261E+04  d E =0.547595E-04  mag=    40.0000
       N       E                     dE             d eps       ncg     rms          rms(c)
DAV:   1    -0.125532800950E+04   -0.19087E-02   -0.12377E-01 22332   0.541E-01    0.360E-01
DAV:   2    -0.125532644533E+04    0.15642E-02   -0.96240E-03 31752   0.195E-01    0.299E-01
DAV:   3    -0.125532616062E+04    0.28471E-03   -0.16286E-03 30900   0.851E-02    0.123E-01
DAV:   4    -0.125532605734E+04    0.10328E-03   -0.41252E-04 22008   0.397E-02    0.633E-02
DAV:   5    -0.125532603310E+04    0.24238E-04   -0.23464E-04 15816   0.287E-02
 257 F= -.12553260E+04 E0= -.12553260E+04  d E =0.210062E-04  mag=    40.0000
       N       E                     dE             d eps       ncg     rms          rms(c)
DAV:   1    -0.125532505523E+04    0.10021E-02   -0.37791E-01 21504   0.834E-01    0.370E-01
DAV:   2    -0.125532546774E+04   -0.41251E-03   -0.17330E-02 29148   0.242E-01    0.355E-01
DAV:   3    -0.125532538013E+04    0.87610E-04   -0.22805E-03 30192   0.972E-02    0.257E-01
DAV:   4    -0.125532522142E+04    0.15872E-03   -0.99882E-04 25500   0.465E-02    0.163E-01
DAV:   5    -0.125532514210E+04    0.79313E-04   -0.15715E-04 17388   0.459E-02
