BiTiFeO                                 
           1
    10.966021    0.002195    0.012852
     0.001100    5.476708    0.000904
     0.047900    0.068904   40.587513
   Bi   Ti   O    Fe
  40  24 120   8
Direct configuration=     1
   0.12581734  0.24552768  0.10456018
   0.62581736  0.24552768  0.10456018
   0.11884221  0.27533320  0.21951799
   0.61884218  0.27533320  0.21951799
   0.12581734  0.74552768  0.60456020
   0.62581736  0.74552768  0.60456020
   0.11884221  0.77533323  0.71951795
   0.61884218  0.77533323  0.71951795
   0.37581733  0.75447232  0.89543980
   0.87581730  0.75447232  0.89543980
   0.36884218  0.72466677  0.78048205
   0.86884218  0.72466677  0.78048205
   0.37581733  0.25447232  0.39543983
   0.87581730  0.25447232  0.39543983
   0.36884218  0.22466679  0.28048199
   0.86884218  0.22466679  0.28048199
   0.37389028  0.75425547  0.10488448
   0.87389028  0.75425547  0.10488448
   0.36734301  0.72707325  0.21940872
   0.86734301  0.72707325  0.21940872
   0.37389028  0.25425550  0.60488451
   0.87389028  0.25425550  0.60488451
   0.36734301  0.22707324  0.71940875
   0.86734301  0.22707324  0.71940875
   0.12389029  0.24574450  0.89511549
   0.62389028  0.24574450  0.89511549
   0.11734302  0.27292678  0.78059125
   0.61734301  0.27292678  0.78059125
   0.12389029  0.74574453  0.39511553
   0.62389028  0.74574453  0.39511553
   0.11734302  0.77292675  0.28059128
   0.61734301  0.77292675  0.28059128
   0.12124083  0.24192810  0.00106251
   0.62124085  0.24192810  0.00106251
   0.12124083  0.74192810  0.50106251
   0.62124085  0.74192810  0.50106251
   0.37124082  0.75807190  0.99893749
   0.87124085  0.75807190  0.99893749
   0.37124082  0.25807190  0.49893743
   0.87124085  0.25807190  0.49893743
   0.14778419  0.25003338  0.34690401
   0.64778417  0.25003338  0.34690401
   0.14778419  0.75003338  0.84690404
   0.64778417  0.75003338  0.84690404
   0.39737403  0.74971396  0.34751427
   0.89737403  0.74971396  0.34751427
   0.39737403  0.24971396  0.84751427
   0.89737403  0.24971396  0.84751427
   0.39778417  0.74996662  0.65309596
   0.89778417  0.74996662  0.65309596
   0.39778417  0.24996664  0.15309598
   0.89778417  0.24996664  0.15309598
   0.14509413  0.24849309  0.54963535
   0.64509416  0.24849309  0.54963535
   0.14737405  0.25028604  0.65248573
   0.64737403  0.25028604  0.65248573
   0.14737405  0.75028604  0.15248573
   0.64737403  0.75028604  0.15248573
   0.14509413  0.74849307  0.04963534
   0.64509416  0.74849307  0.04963534
   0.39572605  0.75503856  0.54978108
   0.89572608  0.75503856  0.54978108
   0.39572605  0.25503856  0.04978108
   0.89572608  0.25503856  0.04978108
   0.30398616  0.55333757  0.05623510
   0.80398619  0.55333757  0.05623510
   0.16037145  0.32244712  0.40269166
   0.66037142  0.32244712  0.40269166
   0.26384732  0.47232899  0.13806446
   0.76384735  0.47232899  0.13806446
   0.14598581  0.18621907  0.30358261
   0.64598584  0.18621907  0.30358261
   0.25139269  0.49499974  0.25136027
   0.75139272  0.49499974  0.25136027
   0.00183105  0.96418035  0.03809405
   0.50183105  0.96418035  0.03809405
   0.05208983  0.05360783  0.15095773
   0.55208981  0.05360783  0.15095773
   0.30398616  0.05333758  0.55623508
   0.80398619  0.05333758  0.55623508
   0.16037145  0.82244712  0.90269166
   0.66037142  0.82244712  0.90269166
   0.26384732  0.97232902  0.63806444
   0.76384735  0.97232902  0.63806444
   0.14598581  0.68621904  0.80358261
   0.64598584  0.68621904  0.80358261
   0.25139269  0.99499977  0.75136030
   0.75139272  0.99499977  0.75136030
   0.00183105  0.46418038  0.53809404
   0.50183105  0.46418038  0.53809404
   0.05208983  0.55360788  0.65095776
   0.55208981  0.55360788  0.65095776
   0.05398618  0.44666240  0.94376492
   0.55398619  0.44666240  0.94376492
   0.41037145  0.67755288  0.59730834
   0.91037142  0.67755288  0.59730834
   0.01384731  0.52767098  0.86193556
   0.51384729  0.52767098  0.86193556
   0.39598584  0.81378096  0.69641739
   0.89598584  0.81378096  0.69641739
   0.00139270  0.50500023  0.74863970
   0.50139272  0.50500023  0.74863970
   0.25183105  0.03581963  0.96190596
   0.75183105  0.03581963  0.96190596
   0.30208984  0.94639212  0.84904224
   0.80208981  0.94639212  0.84904224
   0.05398618  0.94666243  0.44376490
   0.55398619  0.94666243  0.44376490
   0.41037145  0.17755288  0.09730835
   0.91037142  0.17755288  0.09730835
   0.01384731  0.02767100  0.36193556
   0.51384729  0.02767100  0.36193556
   0.39598584  0.31378096  0.19641739
   0.89598584  0.31378096  0.19641739
   0.00139270  0.00500026  0.24863972
   0.50139272  0.00500026  0.24863972
   0.25183105  0.53581965  0.46190593
   0.75183105  0.53581965  0.46190593
   0.30208984  0.44639218  0.34904227
   0.80208981  0.44639218  0.34904227
   0.05373246  0.42657372  0.05429961
   0.55373246  0.42657372  0.05429961
   0.41462371  0.67528647  0.40033671
   0.91462374  0.67528647  0.40033671
   0.01342812  0.52419931  0.13827106
   0.51342809  0.52419931  0.13827106
   0.39733556  0.81472349  0.30391791
   0.89733553  0.81472349  0.30391791
   0.00137807  0.50483209  0.25127208
   0.50137806  0.50483209  0.25127208
   0.25423092  0.05460011  0.03958693
   0.75423092  0.05460011  0.03958693
   0.30389983  0.94555801  0.15167758
   0.80389983  0.94555801  0.15167758
   0.05373246  0.92657369  0.55429965
   0.55373246  0.92657369  0.55429965
   0.41462371  0.17528649  0.90033674
   0.91462374  0.17528649  0.90033674
   0.01342812  0.02419928  0.63827103
   0.51342809  0.02419928  0.63827103
   0.39733556  0.31472352  0.80391788
   0.89733553  0.31472352  0.80391788
   0.00137807  0.00483209  0.75127208
   0.50137806  0.00483209  0.75127208
   0.25423092  0.55460012  0.53958690
   0.75423092  0.55460012  0.53958690
   0.30389983  0.44555801  0.65167761
   0.80389983  0.44555801  0.65167761
   0.30373246  0.57342631  0.94570035
   0.80373246  0.57342631  0.94570035
   0.16462369  0.32471353  0.59966326
   0.66462368  0.32471353  0.59966326
   0.26342809  0.47580072  0.86172897
   0.76342809  0.47580072  0.86172897
   0.14733557  0.18527651  0.69608212
   0.64733559  0.18527651  0.69608212
   0.25137809  0.49516791  0.74872792
   0.75137806  0.49516791  0.74872792
   0.00423092  0.94539988  0.96041310
   0.50423092  0.94539988  0.96041310
   0.05389983  0.05444197  0.84832239
   0.55389983  0.05444197  0.84832239
   0.30373246  0.07342626  0.44570041
   0.80373246  0.07342626  0.44570041
   0.16462369  0.82471353  0.09966327
   0.66462368  0.82471353  0.09966327
   0.26342809  0.97580069  0.36172894
   0.76342809  0.97580069  0.36172894
   0.14733557  0.68527651  0.19608207
   0.64733559  0.68527651  0.19608207
   0.25137809  0.99516791  0.24872789
   0.75137806  0.99516791  0.24872789
   0.00423092  0.44539991  0.46041310
   0.50423092  0.44539991  0.46041310
   0.05389983  0.55444199  0.34832245
   0.55389983  0.55444199  0.34832245
   0.15875485  0.15670252  0.49889919
   0.65875483  0.15670252  0.49889919
   0.15875485  0.65670258  0.99889922
   0.65875483  0.65670258  0.99889922
   0.40875485  0.84329742  0.50110078
   0.90875483  0.84329742  0.50110078
   0.40875485  0.34329748  0.00110078
   0.90875483  0.34329748  0.00110078
   0.39509413  0.75150693  0.45036468
   0.89509416  0.75150693  0.45036468
   0.39509413  0.25150693  0.95036465
   0.89509416  0.25150693  0.95036465
   0.14572605  0.24496144  0.45021892
   0.64572608  0.24496144  0.45021892
   0.14572605  0.74496144  0.95021892
   0.64572608  0.74496144  0.95021892
BiTiFeO                                 
           1
    11.012753    0.002716   -0.002656
     0.001363    5.500821   -0.002237
    -0.009628    0.045897   40.876376
   Bi   Ti   O    Fe
  40  24 120   8
Direct configuration=     2
   0.12570254  0.24688903  0.10511829
   0.62570256  0.24688903  0.10511829
   0.11904540  0.27385523  0.22025265
   0.61904538  0.27385523  0.22025265
   0.12570254  0.74688903  0.60511830
   0.62570256  0.74688903  0.60511830
   0.11904540  0.77385526  0.72025260
   0.61904538  0.77385526  0.72025260
   0.37484462  0.75430662  0.89630727
   0.87484459  0.75430662  0.89630727
   0.36854495  0.72344691  0.78125329
   0.86854495  0.72344691  0.78125329
   0.37484462  0.25430662  0.39630730
   0.87484459  0.25430662  0.39630730
   0.36854495  0.22344692  0.28125323
   0.86854495  0.22344692  0.28125323
   0.37492086  0.75371045  0.10541179
   0.87492086  0.75371045  0.10541179
   0.36763925  0.72831507  0.22014544
   0.86763925  0.72831507  0.22014544
   0.37492086  0.25371048  0.60541181
   0.87492086  0.25371048  0.60541181
   0.36763925  0.22831506  0.72014547
   0.86763925  0.22831506  0.72014547
   0.12391661  0.24523274  0.89606351
   0.62391661  0.24523274  0.89606351
   0.11704268  0.27425070  0.78137586
   0.61704268  0.27425070  0.78137586
   0.12391661  0.74523277  0.39606354
   0.62391661  0.74523277  0.39606354
   0.11704268  0.77425067  0.28137589
   0.61704268  0.77425067  0.28137589
   0.12195283  0.24041241 -0.00248565
   0.62195285  0.24041241 -0.00248565
   0.12195283  0.74041241  0.49751435
   0.62195285  0.74041241  0.49751435
   0.37175822  0.76015331  0.99537121
   0.87175825  0.76015331  0.99537121
   0.37175822  0.26015331  0.49537115
   0.87175825  0.26015331  0.49537115
   0.14765044  0.25065891  0.34813332
   0.64765043  0.25065891  0.34813332
   0.14765044  0.75065891  0.84813335
   0.64765043  0.75065891  0.84813335
   0.39732080  0.74972722  0.34825732
   0.89732080  0.74972722  0.34825732
   0.39732080  0.24972722  0.84825732
   0.89732080  0.24972722  0.84825732
   0.39781770  0.75034036  0.65385370
   0.89781770  0.75034036  0.65385370
   0.39781770  0.25034037  0.15385371
   0.89781770  0.25034037  0.15385371
   0.14481338  0.24644935  0.54818759
   0.64481341  0.24644935  0.54818759
   0.14745633  0.24916857  0.65376974
   0.64745632  0.24916857  0.65376974
   0.14745633  0.74916857  0.15376974
   0.64745632  0.74916857  0.15376974
   0.14481338  0.74644933  0.04818757
   0.64481341  0.74644933  0.04818757
   0.39461877  0.75444796  0.54862894
   0.89461880  0.75444796  0.54862894
   0.39461877  0.25444796  0.04862894
   0.89461880  0.25444796  0.04862894
   0.30008820  0.55783406  0.05654609
   0.80008823  0.55783406  0.05654609
   0.16110993  0.32359940  0.40228523
   0.66110990  0.32359940  0.40228523
   0.26346135  0.47288711  0.13778985
   0.76346138  0.47288711  0.13778985
   0.14615262  0.18455676  0.30274842
   0.64615265  0.18455676  0.30274842
   0.25126343  0.49522574  0.25090511
   0.75126346  0.49522574  0.25090511
   0.00668965  0.95699810  0.03943345
   0.50668965  0.95699810  0.03943345
   0.05245132  0.05364789  0.15061786
   0.55245130  0.05364789  0.15061786
   0.30008820  0.05783406  0.55654607
   0.80008823  0.05783406  0.55654607
   0.16110993  0.82359940  0.90228523
   0.66110990  0.82359940  0.90228523
   0.26346135  0.97288714  0.63778984
   0.76346138  0.97288714  0.63778984
   0.14615262  0.68455674  0.80274842
   0.64615265  0.68455674  0.80274842
   0.25126343  0.99522577  0.75090514
   0.75126346  0.99522577  0.75090514
   0.00668965  0.45699813  0.53943344
   0.50668965  0.45699813  0.53943344
   0.05245132  0.55364794  0.65061789
   0.55245130  0.55364794  0.65061789
   0.05193024  0.43926727  0.94449805
   0.55193026  0.43926727  0.94449805
   0.41067835  0.67765043  0.59725374
   0.91067832  0.67765043  0.59725374
   0.01375459  0.52730193  0.86154439
   0.51375457  0.52730193  0.86154439
   0.39582343  0.81233709  0.69573197
   0.89582343  0.81233709  0.69573197
   0.00146019  0.50510704  0.74819122
   0.50146021  0.50510704  0.74819122
   0.25438842  0.04254970  0.96290884
   0.75438842  0.04254970  0.96290884
   0.30231263  0.94727700  0.84865532
   0.80231260  0.94727700  0.84865532
   0.05193024  0.93926730  0.44449802
   0.55193026  0.93926730  0.44449802
   0.41067835  0.17765043  0.09725375
   0.91067832  0.17765043  0.09725375
   0.01375459  0.02730195  0.36154439
   0.51375457  0.02730195  0.36154439
   0.39582343  0.31233709  0.19573197
   0.89582343  0.31233709  0.19573197
   0.00146019  0.00510707  0.24819123
   0.50146021  0.00510707  0.24819123
   0.25438842  0.54254972  0.46290881
   0.75438842  0.54254972  0.46290881
   0.30231263  0.44727706  0.34865535
   0.80231260  0.44727706  0.34865535
   0.05668696  0.44107173  0.05490595
   0.55668696  0.44107173  0.05490595
   0.41383058  0.67637860  0.40123354
   0.91383061  0.67637860  0.40123354
   0.01349831  0.52465699  0.13793155
   0.51349828  0.52465699  0.13793155
   0.39753955  0.81615380  0.30318724
   0.89753952  0.81615380  0.30318724
   0.00127194  0.50470918  0.25081834
   0.50127193  0.50470918  0.25081834
   0.25179452  0.04486381  0.04064677
   0.75179452  0.04486381  0.04064677
   0.30366536  0.94454241  0.15128827
   0.80366536  0.94454241  0.15128827
   0.05668696  0.94107170  0.55490599
   0.55668696  0.94107170  0.55490599
   0.41383058  0.17637861  0.90123357
   0.91383061  0.17637861  0.90123357
   0.01349831  0.02465696  0.63793152
   0.51349828  0.02465696  0.63793152
   0.39753955  0.31615383  0.80318721
   0.89753952  0.31615383  0.80318721
   0.00127194  0.00470919  0.75081834
   0.50127193  0.00470919  0.75081834
   0.25179452  0.54486381  0.54064675
   0.75179452  0.54486381  0.54064675
   0.30366536  0.44454241  0.65128830
   0.80366536  0.44454241  0.65128830
   0.30714222  0.56559934  0.94644530
   0.80714222  0.56559934  0.94644530
   0.16333172  0.32214491  0.59797698
   0.66333171  0.32214491  0.59797698
   0.26399113  0.47525540  0.86141529
   0.76399113  0.47525540  0.86141529
   0.14709298  0.18702008  0.69527870
   0.64709300  0.18702008  0.69527870
   0.25140647  0.49497939  0.74827880
   0.75140644  0.49497939  0.74827880
   0.00104131  0.95209720  0.96159384
   0.50104131  0.95209720  0.96159384
   0.05342528  0.05442464  0.84795688
   0.55342528  0.05442464  0.84795688
   0.30714222  0.06559930  0.44644536
   0.80714222  0.06559930  0.44644536
   0.16333172  0.82214491  0.09797699
   0.66333171  0.82214491  0.09797699
   0.26399113  0.97525537  0.36141526
   0.76399113  0.97525537  0.36141526
   0.14709298  0.68702008  0.19527866
   0.64709300  0.68702008  0.19527866
   0.25140647  0.99497939  0.24827877
   0.75140644  0.99497939  0.24827877
   0.00104131  0.45209723  0.46159384
   0.50104131  0.45209723  0.46159384
   0.05342528  0.55442466  0.34795694
   0.55342528  0.55442466  0.34795694
   0.15832900  0.15964459  0.50209905
   0.65832897  0.15964459  0.50209905
   0.15832900  0.65964465  1.00209908
   0.65832897  0.65964465  1.00209908
   0.40878492  0.84003684  0.50201336
   0.90878489  0.84003684  0.50201336
   0.40878492  0.34003690  0.00201336
   0.90878489  0.34003690  0.00201336
   0.39547491  0.75373971  0.44932301
   0.89547494  0.75373971  0.44932301
   0.39547491  0.25373971  0.94932298
   0.89547494  0.25373971  0.94932298
   0.14508291  0.24507689  0.44885326
   0.64508294  0.24507689  0.44885326
   0.14508291  0.74507689  0.94885326
   0.64508294  0.74507689  0.94885326
BiTiFeO                                 
           1
    11.006122    0.002514   -0.014081
     0.001264    5.496051   -0.004047
    -0.052059    0.032361   40.731055
   Bi   Ti   O    Fe
  40  24 120   8
Direct configuration=     3
   0.12600580  0.24651932  0.10481407
   0.62600581  0.24651932  0.10481407
   0.11938839  0.27302949  0.21992278
   0.61938837  0.27302949  0.21992278
   0.12600580  0.74651932  0.60481408
   0.62600581  0.74651932  0.60481408
   0.11938839  0.77302952  0.71992273
   0.61938837  0.77302952  0.71992273
   0.37509587  0.75392007  0.89636127
   0.87509584  0.75392007  0.89636127
   0.36833376  0.72384562  0.78122150
   0.86833376  0.72384562  0.78122150
   0.37509587  0.25392007  0.39636130
   0.87509584  0.25392007  0.39636130
   0.36833376  0.22384564  0.28122144
   0.86833376  0.22384564  0.28122144
   0.37494608  0.75382267  0.10509723
   0.87494608  0.75382267  0.10509723
   0.36817344  0.72880854  0.21980536
   0.86817344  0.72880854  0.21980536
   0.37494608  0.25382270  0.60509725
   0.87494608  0.25382270  0.60509725
   0.36817344  0.22880853  0.71980539
   0.86817344  0.22880853  0.71980539
   0.12405964  0.24586064  0.89614551
   0.62405963  0.24586064  0.89614551
   0.11697421  0.27410820  0.78135522
   0.61697420  0.27410820  0.78135522
   0.12405964  0.74586067  0.39614554
   0.62405963  0.74586067  0.39614554
   0.11697421  0.77410817  0.28135525
   0.61697420  0.77410817  0.28135525
   0.12190912  0.24038888 -0.00215100
   0.62190914  0.24038888 -0.00215100
   0.12190912  0.74038888  0.49784900
   0.62190914  0.74038888  0.49784900
   0.37172617  0.75993925  0.99588513
   0.87172620  0.75993925  0.99588513
   0.37172617  0.25993925  0.49588507
   0.87172620  0.25993925  0.49588507
   0.14758516  0.25033689  0.34731623
   0.64758514  0.25033689  0.34731623
   0.14758516  0.75033689  0.84731626
   0.64758514  0.75033689  0.84731626
   0.39743561  0.74998099  0.34758256
   0.89743561  0.74998099  0.34758256
   0.39743561  0.24998099  0.84758256
   0.89743561  0.24998099  0.84758256
   0.39778517  0.74910391  0.65251784
   0.89778517  0.74910391  0.65251784
   0.39778517  0.24910392  0.15251785
   0.89778517  0.24910392  0.15251785
   0.14540193  0.24621357  0.54912455
   0.64540196  0.24621357  0.54912455
   0.14751811  0.25092030  0.65202165
   0.64751810  0.25092030  0.65202165
   0.14751811  0.75092030  0.15202165
   0.64751810  0.75092030  0.15202165
   0.14540193  0.74621356  0.04912454
   0.64540196  0.74621356  0.04912454
   0.39453630  0.75508116  0.54935682
   0.89453633  0.75508116  0.54935682
   0.39453630  0.25508116  0.04935682
   0.89453633  0.25508116  0.04935682
   0.30093803  0.55529792  0.05640855
   0.80093806  0.55529792  0.05640855
   0.16127249  0.32318313  0.40217931
   0.66127246  0.32318313  0.40217931
   0.26354936  0.47279014  0.13800600
   0.76354939  0.47279014  0.13800600
   0.14622964  0.18554225  0.30336014
   0.64622967  0.18554225  0.30336014
   0.25120190  0.49493411  0.25111720
   0.75120193  0.49493411  0.25111720
   0.00565956  0.95845643  0.03932820
   0.50565956  0.95845643  0.03932820
   0.05229827  0.05337826  0.15083123
   0.55229824  0.05337826  0.15083123
   0.30093803  0.05529793  0.55640853
   0.80093806  0.05529793  0.55640853
   0.16127249  0.82318313  0.90217931
   0.66127246  0.82318313  0.90217931
   0.26354936  0.97279017  0.63800599
   0.76354939  0.97279017  0.63800599
   0.14622964  0.68554223  0.80336014
   0.64622967  0.68554223  0.80336014
   0.25120190  0.99493414  0.75111723
   0.75120193  0.99493414  0.75111723
   0.00565956  0.45845646  0.53932819
   0.50565956  0.45845646  0.53932819
   0.05229827  0.55337831  0.65083126
   0.55229824  0.55337831  0.65083126
   0.05244531  0.43960724  0.94460469
   0.55244533  0.43960724  0.94460469
   0.41070660  0.67846958  0.59703933
   0.91070657  0.67846958  0.59703933
   0.01361329  0.52730246  0.86168438
   0.51361328  0.52730246  0.86168438
   0.39563805  0.81376449  0.69693400
   0.89563805  0.81376449  0.69693400
   0.00137877  0.50461460  0.74833736
   0.50137879  0.50461460  0.74833736
   0.25484387  0.04191103  0.96249028
   0.75484387  0.04191103  0.96249028
   0.30236376  0.94710966  0.84872768
   0.80236373  0.94710966  0.84872768
   0.05244531  0.93960727  0.44460466
   0.55244533  0.93960727  0.44460466
   0.41070660  0.17846958  0.09703934
   0.91070657  0.17846958  0.09703934
   0.01361329  0.02730248  0.36168438
   0.51361328  0.02730248  0.36168438
   0.39563805  0.31376449  0.19693400
   0.89563805  0.31376449  0.19693400
   0.00137877  0.00461463  0.24833737
   0.50137879  0.00461463  0.24833737
   0.25484387  0.54191106  0.46249025
   0.75484387  0.54191106  0.46249025
   0.30236376  0.44710972  0.34872771
   0.80236373  0.44710972  0.34872771
   0.05525690  0.44085157  0.05491490
   0.55525689  0.44085157  0.05491490
   0.41351947  0.67658053  0.40138510
   0.91351950  0.67658053  0.40138510
   0.01352292  0.52466181  0.13814057
   0.51352290  0.52466181  0.13814057
   0.39754614  0.81528517  0.30361025
   0.89754611  0.81528517  0.30361025
   0.00119089  0.50518010  0.25102922
   0.50119088  0.50518010  0.25102922
   0.25241451  0.04596319  0.04042542
   0.75241451  0.04596319  0.04042542
   0.30344618  0.94472918  0.15145188
   0.80344618  0.94472918  0.15145188
   0.05525690  0.94085154  0.55491494
   0.55525689  0.94085154  0.55491494
   0.41351947  0.17658055  0.90138513
   0.91351950  0.17658055  0.90138513
   0.01352292  0.02466178  0.63814054
   0.51352290  0.02466178  0.63814054
   0.39754614  0.31528520  0.80361022
   0.89754611  0.31528520  0.80361022
   0.00119089  0.00518011  0.75102922
   0.50119088  0.00518011  0.75102922
   0.25241451  0.54596320  0.54042539
   0.75241451  0.54596320  0.54042539
   0.30344618  0.44472918  0.65145191
   0.80344618  0.44472918  0.65145191
   0.30649925  0.56501801  0.94635235
   0.80649925  0.56501801  0.94635235
   0.16288753  0.32189070  0.59776117
   0.66288751  0.32189070  0.59776117
   0.26386401  0.47532881  0.86156599
   0.76386401  0.47532881  0.86156599
   0.14685807  0.18513408  0.69685157
   0.64685809  0.18513408  0.69685157
   0.25130046  0.49537519  0.74843492
   0.75130043  0.49537519  0.74843492
   0.00246314  0.95372236  0.96120328
   0.50246313  0.95372236  0.96120328
   0.05336128  0.05458533  0.84806903
   0.55336128  0.05458533  0.84806903
   0.30649925  0.06501797  0.44635241
   0.80649925  0.06501797  0.44635241
   0.16288753  0.82189070  0.09776119
   0.66288751  0.82189070  0.09776119
   0.26386401  0.97532878  0.36156596
   0.76386401  0.97532878  0.36156596
   0.14685807  0.68513408  0.19685153
   0.64685809  0.68513408  0.19685153
   0.25130046  0.99537519  0.24843489
   0.75130043  0.99537519  0.24843489
   0.00246314  0.45372239  0.46120328
   0.50246313  0.45372239  0.46120328
   0.05336128  0.55458535  0.34806909
   0.55336128  0.55458535  0.34806909
   0.15849071  0.15974371  0.50121839
   0.65849068  0.15974371  0.50121839
   0.15849071  0.65974377  1.00121842
   0.65849068  0.65974377  1.00121842
   0.40885640  0.83929252  0.50135279
   0.90885637  0.83929252  0.50135279
   0.40885640  0.33929258  0.00135279
   0.90885637  0.33929258  0.00135279
   0.39515595  0.75302905  0.44954900
   0.89515598  0.75302905  0.44954900
   0.39515595  0.25302905  0.94954897
   0.89515598  0.25302905  0.94954897
   0.14435236  0.24538771  0.44925899
   0.64435239  0.24538771  0.44925899
   0.14435236  0.74538771  0.94925899
   0.64435239  0.74538771  0.94925899
BiTiFeO                                 
           1
    10.986743    0.002039   -0.007143
     0.001026    5.486425   -0.002102
    -0.026245    0.046735   40.740283
   Bi   Ti   O    Fe
  40  24 120   8
Direct configuration=     4
   0.12616559  0.24678524  0.10443084
   0.62616560  0.24678524  0.10443084
   0.11960306  0.27314260  0.21977381
   0.61960304  0.27314260  0.21977381
   0.12616559  0.74678524  0.60443085
   0.62616560  0.74678524  0.60443085
   0.11960306  0.77314263  0.71977376
   0.61960304  0.77314263  0.71977376
   0.37488484  0.75367718  0.89626968
   0.87488481  0.75367718  0.89626968
   0.36805697  0.72454116  0.78098707
   0.86805697  0.72454116  0.78098707
   0.37488484  0.25367718  0.39626971
   0.87488481  0.25367718  0.39626971
   0.36805697  0.22454118  0.28098701
   0.86805697  0.22454118  0.28098701
   0.37518051  0.75345291  0.10472848
   0.87518051  0.75345291  0.10472848
   0.36843182  0.72845892  0.21966156
   0.86843182  0.72845892  0.21966156
   0.37518051  0.25345294  0.60472850
   0.87518051  0.25345294  0.60472850
   0.36843182  0.22845890  0.71966159
   0.86843182  0.22845890  0.71966159
   0.12389503  0.24636076  0.89609858
   0.62389502  0.24636076  0.89609858
   0.11684835  0.27374239  0.78112118
   0.61684834  0.27374239  0.78112118
   0.12389503  0.74636079  0.39609861
   0.62389502  0.74636079  0.39609861
   0.11684835  0.77374236  0.28112121
   0.61684834  0.77374236  0.28112121
   0.12176494  0.24026503 -0.00237036
   0.62176496  0.24026503 -0.00237036
   0.12176494  0.74026503  0.49762964
   0.62176496  0.74026503  0.49762964
   0.37174132  0.75986048  0.99585664
   0.87174135  0.75986048  0.99585664
   0.37174132  0.25986048  0.49585658
   0.87174135  0.25986048  0.49585658
   0.14761378  0.25041026  0.34688417
   0.64761377  0.25041026  0.34688417
   0.14761378  0.75041026  0.84688420
   0.64761377  0.75041026  0.84688420
   0.39755415  0.74993274  0.34719662
   0.89755415  0.74993274  0.34719662
   0.39755415  0.24993274  0.84719662
   0.89755415  0.24993274  0.84719662
   0.39763601  0.75029128  0.65318611
   0.89763601  0.75029128  0.65318611
   0.39763601  0.25029129  0.15318612
   0.89763601  0.25029129  0.15318612
   0.14552263  0.24641656  0.54917770
   0.64552266  0.24641656  0.54917770
   0.14750892  0.24947332  0.65276588
   0.64750890  0.24947332  0.65276588
   0.14750892  0.74947332  0.15276588
   0.64750890  0.74947332  0.15276588
   0.14552263  0.74641655  0.04917769
   0.64552266  0.74641655  0.04917769
   0.39464383  0.75496916  0.54924065
   0.89464386  0.75496916  0.54924065
   0.39464383  0.25496916  0.04924065
   0.89464386  0.25496916  0.04924065
   0.30153276  0.55280199  0.05645245
   0.80153279  0.55280199  0.05645245
   0.16162594  0.32273069  0.40224919
   0.66162591  0.32273069  0.40224919
   0.26356358  0.47295873  0.13799734
   0.76356361  0.47295873  0.13799734
   0.14632364  0.18611264  0.30376067
   0.64632367  0.18611264  0.30376067
   0.25131059  0.49468061  0.25138915
   0.75131062  0.49468061  0.25138915
   0.00524617  0.95930905  0.03953908
   0.50524617  0.95930905  0.03953908
   0.05220788  0.05300135  0.15075896
   0.55220786  0.05300135  0.15075896
   0.30153276  0.05280199  0.55645242
   0.80153279  0.05280199  0.55645242
   0.16162594  0.82273069  0.90224919
   0.66162591  0.82273069  0.90224919
   0.26356358  0.97295876  0.63799732
   0.76356361  0.97295876  0.63799732
   0.14632364  0.68611261  0.80376067
   0.64632367  0.68611261  0.80376067
   0.25131059  0.99468063  0.75138918
   0.75131062  0.99468063  0.75138918
   0.00524617  0.45930908  0.53953907
   0.50524617  0.45930908  0.53953907
   0.05220788  0.55300141  0.65075899
   0.55220786  0.55300141  0.65075899
   0.05319828  0.43958277  0.94497805
   0.55319829  0.43958277  0.94497805
   0.41081609  0.67914845  0.59705111
   0.91081606  0.67914845  0.59705111
   0.01347757  0.52731847  0.86184886
   0.51347755  0.52731847  0.86184886
   0.39556135  0.81245364  0.69632219
   0.89556135  0.81245364  0.69632219
   0.00131661  0.50423458  0.74861612
   0.50131663  0.50423458  0.74861612
   0.25528411  0.04123986  0.96218395
   0.75528411  0.04123986  0.96218395
   0.30253296  0.94684550  0.84883287
   0.80253293  0.94684550  0.84883287
   0.05319828  0.93958280  0.44497802
   0.55319829  0.93958280  0.44497802
   0.41081609  0.17914845  0.09705112
   0.91081606  0.17914845  0.09705112
   0.01347757  0.02731850  0.36184886
   0.51347755  0.02731850  0.36184886
   0.39556135  0.31245364  0.19632219
   0.89556135  0.31245364  0.19632219
   0.00131661  0.00423461  0.24861614
   0.50131663  0.00423461  0.24861614
   0.25528411  0.54123989  0.46218392
   0.75528411  0.54123989  0.46218392
   0.30253296  0.44684556  0.34883290
   0.80253293  0.44684556  0.34883290
   0.05364483  0.44201293  0.05518982
   0.55364482  0.44201293  0.05518982
   0.41319247  0.67681308  0.40173724
   0.91319250  0.67681308  0.40173724
   0.01356168  0.52474318  0.13811539
   0.51356166  0.52474318  0.13811539
   0.39756364  0.81473525  0.30386415
   0.89756361  0.81473525  0.30386415
   0.00123436  0.50544412  0.25130321
   0.50123434  0.50544412  0.25130321
   0.25325718  0.04639426  0.04044630
   0.75325718  0.04639426  0.04044630
   0.30313170  0.94492195  0.15129966
   0.80313170  0.94492195  0.15129966
   0.05364483  0.94201290  0.55518986
   0.55364482  0.94201290  0.55518986
   0.41319247  0.17681310  0.90173727
   0.91319250  0.17681310  0.90173727
   0.01356168  0.02474315  0.63811536
   0.51356166  0.02474315  0.63811536
   0.39756364  0.31473528  0.80386412
   0.89756361  0.31473528  0.80386412
   0.00123436  0.00544412  0.75130321
   0.50123434  0.00544412  0.75130321
   0.25325718  0.54639427  0.54044627
   0.75325718  0.54639427  0.54044627
   0.30313170  0.44492195  0.65129969
   0.80313170  0.44492195  0.65129969
   0.30585796  0.56439798  0.94644281
   0.80585796  0.56439798  0.94644281
   0.16227052  0.32144199  0.59763591
   0.66227051  0.32144199  0.59763591
   0.26379963  0.47523090  0.86174569
   0.76379963  0.47523090  0.86174569
   0.14668120  0.18651970  0.69624643
   0.64668122  0.18651970  0.69624643
   0.25127585  0.49571731  0.74871543
   0.75127582  0.49571731  0.74871543
   0.00392993  0.95571333  0.96099332
   0.50392993  0.95571333  0.96099332
   0.05326606  0.05495322  0.84823945
   0.55326606  0.05495322  0.84823945
   0.30585796  0.06439794  0.44644287
   0.80585796  0.06439794  0.44644287
   0.16227052  0.82144199  0.09763593
   0.66227051  0.82144199  0.09763593
   0.26379963  0.97523087  0.36174566
   0.76379963  0.97523087  0.36174566
   0.14668120  0.68651970  0.19624638
   0.64668122  0.68651970  0.19624638
   0.25127585  0.99571731  0.24871540
   0.75127582  0.99571731  0.24871540
   0.00392993  0.45571336  0.46099332
   0.50392993  0.45571336  0.46099332
   0.05326606  0.55495325  0.34823950
   0.55326606  0.55495325  0.34823950
   0.15870509  0.16083583  0.50091679
   0.65870506  0.16083583  0.50091679
   0.15870509  0.66083589  1.00091682
   0.65870506  0.66083589  1.00091682
   0.40901025  0.83767454  0.50113061
   0.90901022  0.83767454  0.50113061
   0.40901025  0.33767460  0.00113061
   0.90901022  0.33767460  0.00113061
   0.39490032  0.75261710  0.44956282
   0.89490035  0.75261710  0.44956282
   0.39490032  0.25261710  0.94956279
   0.89490035  0.25261710  0.94956279