BiTiFeO                                 
           1
    10.972213    0.002087    0.011655
     0.001046    5.485269   -0.000859
     0.043445    0.055907   40.616786
   Bi   Ti   O    Fe
  40  24 120   8
Direct configuration=     1
   0.12581734  0.24552768  0.10456018
   0.62581736  0.24552768  0.10456018
   0.11884221  0.27533320  0.21951799
   0.61884218  0.27533320  0.21951799
   0.12581734  0.74552768  0.60456020
   0.62581736  0.74552768  0.60456020
   0.11884221  0.77533323  0.71951795
   0.61884218  0.77533323  0.71951795
   0.37581733  0.75447232  0.89543980
   0.87581730  0.75447232  0.89543980
   0.36884218  0.72466677  0.78048205
   0.86884218  0.72466677  0.78048205
   0.37581733  0.25447232  0.39543983
   0.87581730  0.25447232  0.39543983
   0.36884218  0.22466679  0.28048199
   0.86884218  0.22466679  0.28048199
   0.37389028  0.75425547  0.10488448
   0.87389028  0.75425547  0.10488448
   0.36734301  0.72707325  0.21940872
   0.86734301  0.72707325  0.21940872
   0.37389028  0.25425550  0.60488451
   0.87389028  0.25425550  0.60488451
   0.36734301  0.22707324  0.71940875
   0.86734301  0.22707324  0.71940875
   0.12389029  0.24574450  0.89511549
   0.62389028  0.24574450  0.89511549
   0.11734302  0.27292678  0.78059125
   0.61734301  0.27292678  0.78059125
   0.12389029  0.74574453  0.39511553
   0.62389028  0.74574453  0.39511553
   0.11734302  0.77292675  0.28059128
   0.61734301  0.77292675  0.28059128
   0.12124083  0.24192810  0.00106251
   0.62124085  0.24192810  0.00106251
   0.12124083  0.74192810  0.50106251
   0.62124085  0.74192810  0.50106251
   0.37124082  0.75807190  0.99893749
   0.87124085  0.75807190  0.99893749
   0.37124082  0.25807190  0.49893743
   0.87124085  0.25807190  0.49893743
   0.39737403  0.74971396  0.34751427
   0.89737403  0.74971396  0.34751427
   0.39737403  0.24971396  0.84751427
   0.89737403  0.24971396  0.84751427
   0.39778417  0.74996662  0.65309596
   0.89778417  0.74996662  0.65309596
   0.39778417  0.24996664  0.15309598
   0.89778417  0.24996664  0.15309598
   0.14509413  0.24849309  0.54963535
   0.64509416  0.24849309  0.54963535
   0.14737405  0.25028604  0.65248573
   0.64737403  0.25028604  0.65248573
   0.14737405  0.75028604  0.15248573
   0.64737403  0.75028604  0.15248573
   0.14509413  0.74849307  0.04963534
   0.64509416  0.74849307  0.04963534
   0.14572605  0.24496144  0.45021892
   0.64572608  0.24496144  0.45021892
   0.14572605  0.74496144  0.95021892
   0.64572608  0.74496144  0.95021892
   0.39572605  0.75503856  0.54978108
   0.89572608  0.75503856  0.54978108
   0.39572605  0.25503856  0.04978108
   0.89572608  0.25503856  0.04978108
   0.30398616  0.55333757  0.05623510
   0.80398619  0.55333757  0.05623510
   0.16037145  0.32244712  0.40269166
   0.66037142  0.32244712  0.40269166
   0.26384732  0.47232899  0.13806446
   0.76384735  0.47232899  0.13806446
   0.14598581  0.18621907  0.30358261
   0.64598584  0.18621907  0.30358261
   0.25139269  0.49499974  0.25136027
   0.75139272  0.49499974  0.25136027
   0.00183105  0.96418035  0.03809405
   0.50183105  0.96418035  0.03809405
   0.05208983  0.05360783  0.15095773
   0.55208981  0.05360783  0.15095773
   0.30398616  0.05333758  0.55623508
   0.80398619  0.05333758  0.55623508
   0.16037145  0.82244712  0.90269166
   0.66037142  0.82244712  0.90269166
   0.26384732  0.97232902  0.63806444
   0.76384735  0.97232902  0.63806444
   0.14598581  0.68621904  0.80358261
   0.64598584  0.68621904  0.80358261
   0.25139269  0.99499977  0.75136030
   0.75139272  0.99499977  0.75136030
   0.00183105  0.46418038  0.53809404
   0.50183105  0.46418038  0.53809404
   0.05208983  0.55360788  0.65095776
   0.55208981  0.55360788  0.65095776
   0.05398618  0.44666240  0.94376492
   0.55398619  0.44666240  0.94376492
   0.41037145  0.67755288  0.59730834
   0.91037142  0.67755288  0.59730834
   0.01384731  0.52767098  0.86193556
   0.51384729  0.52767098  0.86193556
   0.39598584  0.81378096  0.69641739
   0.89598584  0.81378096  0.69641739
   0.00139270  0.50500023  0.74863970
   0.50139272  0.50500023  0.74863970
   0.25183105  0.03581963  0.96190596
   0.75183105  0.03581963  0.96190596
   0.30208984  0.94639212  0.84904224
   0.80208981  0.94639212  0.84904224
   0.05398618  0.94666243  0.44376490
   0.55398619  0.94666243  0.44376490
   0.41037145  0.17755288  0.09730835
   0.91037142  0.17755288  0.09730835
   0.01384731  0.02767100  0.36193556
   0.51384729  0.02767100  0.36193556
   0.39598584  0.31378096  0.19641739
   0.89598584  0.31378096  0.19641739
   0.00139270  0.00500026  0.24863972
   0.50139272  0.00500026  0.24863972
   0.25183105  0.53581965  0.46190593
   0.75183105  0.53581965  0.46190593
   0.30208984  0.44639218  0.34904227
   0.80208981  0.44639218  0.34904227
   0.05373246  0.42657372  0.05429961
   0.55373246  0.42657372  0.05429961
   0.41462371  0.67528647  0.40033671
   0.91462374  0.67528647  0.40033671
   0.01342812  0.52419931  0.13827106
   0.51342809  0.52419931  0.13827106
   0.39733556  0.81472349  0.30391791
   0.89733553  0.81472349  0.30391791
   0.00137807  0.50483209  0.25127208
   0.50137806  0.50483209  0.25127208
   0.25423092  0.05460011  0.03958693
   0.75423092  0.05460011  0.03958693
   0.30389983  0.94555801  0.15167758
   0.80389983  0.94555801  0.15167758
   0.05373246  0.92657369  0.55429965
   0.55373246  0.92657369  0.55429965
   0.41462371  0.17528649  0.90033674
   0.91462374  0.17528649  0.90033674
   0.01342812  0.02419928  0.63827103
   0.51342809  0.02419928  0.63827103
   0.39733556  0.31472352  0.80391788
   0.89733553  0.31472352  0.80391788
   0.00137807  0.00483209  0.75127208
   0.50137806  0.00483209  0.75127208
   0.25423092  0.55460012  0.53958690
   0.75423092  0.55460012  0.53958690
   0.30389983  0.44555801  0.65167761
   0.80389983  0.44555801  0.65167761
   0.30373246  0.57342631  0.94570035
   0.80373246  0.57342631  0.94570035
   0.16462369  0.32471353  0.59966326
   0.66462368  0.32471353  0.59966326
   0.26342809  0.47580072  0.86172897
   0.76342809  0.47580072  0.86172897
   0.14733557  0.18527651  0.69608212
   0.64733559  0.18527651  0.69608212
   0.25137809  0.49516791  0.74872792
   0.75137806  0.49516791  0.74872792
   0.00423092  0.94539988  0.96041310
   0.50423092  0.94539988  0.96041310
   0.05389983  0.05444197  0.84832239
   0.55389983  0.05444197  0.84832239
   0.30373246  0.07342626  0.44570041
   0.80373246  0.07342626  0.44570041
   0.16462369  0.82471353  0.09966327
   0.66462368  0.82471353  0.09966327
   0.26342809  0.97580069  0.36172894
   0.76342809  0.97580069  0.36172894
   0.14733557  0.68527651  0.19608207
   0.64733559  0.68527651  0.19608207
   0.25137809  0.99516791  0.24872789
   0.75137806  0.99516791  0.24872789
   0.00423092  0.44539991  0.46041310
   0.50423092  0.44539991  0.46041310
   0.05389983  0.55444199  0.34832245
   0.55389983  0.55444199  0.34832245
   0.15875485  0.15670252  0.49889919
   0.65875483  0.15670252  0.49889919
   0.15875485  0.65670258  0.99889922
   0.65875483  0.65670258  0.99889922
   0.40875485  0.84329742  0.50110078
   0.90875483  0.84329742  0.50110078
   0.40875485  0.34329748  0.00110078
   0.90875483  0.34329748  0.00110078
   0.14778419  0.25003338  0.34690401
   0.64778417  0.25003338  0.34690401
   0.14778419  0.75003338  0.84690404
   0.64778417  0.75003338  0.84690404
   0.39509413  0.75150693  0.45036468
   0.89509416  0.75150693  0.45036468
   0.39509413  0.25150693  0.95036465
   0.89509416  0.25150693  0.95036465
BiTiFeO                                 
           1
    11.004219    0.001964    0.008770
     0.000987    5.500311   -0.002402
     0.032633    0.044676   40.860755
   Bi   Ti   O    Fe
  40  24 120   8
Direct configuration=     2
   0.12582836  0.24616860  0.10507805
   0.62582838  0.24616860  0.10507805
   0.11898482  0.27419861  0.22016564
   0.61898480  0.27419861  0.22016564
   0.12582836  0.74616860  0.60507807
   0.62582838  0.74616860  0.60507807
   0.11898482  0.77419864  0.72016560
   0.61898480  0.77419864  0.72016560
   0.37564736  0.75374536  0.89401288
   0.87564733  0.75374536  0.89401288
   0.36825904  0.72395823  0.78140649
   0.86825904  0.72395823  0.78140649
   0.37564736  0.25374536  0.39401291
   0.87564733  0.25374536  0.39401291
   0.36825904  0.22395824  0.28140643
   0.86825904  0.22395824  0.28140643
   0.37454810  0.75385815  0.10539134
   0.87454810  0.75385815  0.10539134
   0.36763763  0.72789164  0.22007329
   0.86763763  0.72789164  0.22007329
   0.37454810  0.25385818  0.60539136
   0.87454810  0.25385818  0.60539136
   0.36763763  0.22789162  0.72007332
   0.86763763  0.22789162  0.72007332
   0.12406316  0.24669002  0.89375657
   0.62406315  0.24669002  0.89375657
   0.11720229  0.27430321  0.78154790
   0.61720228  0.27430321  0.78154790
   0.12406316  0.74669005  0.39375660
   0.62406315  0.74669005  0.39375660
   0.11720229  0.77430318  0.28154793
   0.61720228  0.77430318  0.28154793
   0.12154691  0.24155228 -0.00012704
   0.62154694  0.24155228 -0.00012704
   0.12154691  0.74155228  0.49987296
   0.62154694  0.74155228  0.49987296
   0.37155518  0.75890029  0.99772859
   0.87155521  0.75890029  0.99772859
   0.37155518  0.25890029  0.49772853
   0.87155521  0.25890029  0.49772853
   0.39780102  0.74790786  0.34748219
   0.89780102  0.74790786  0.34748219
   0.39780102  0.24790786  0.84748219
   0.89780102  0.24790786  0.84748219
   0.39780593  0.75031258  0.65380077
   0.89780593  0.75031258  0.65380077
   0.39780593  0.25031259  0.15380078
   0.89780593  0.25031259  0.15380078
   0.14514099  0.24778478  0.54957488
   0.64514102  0.24778478  0.54957488
   0.14746893  0.24953120  0.65347062
   0.64746891  0.24953120  0.65347062
   0.14746893  0.74953120  0.15347062
   0.64746891  0.74953120  0.15347062
   0.14514099  0.74778476  0.04957487
   0.64514102  0.74778476  0.04957487
   0.14569124  0.24479139  0.44870904
   0.64569127  0.24479139  0.44870904
   0.14569124  0.74479139  0.94870904
   0.64569127  0.74479139  0.94870904
   0.39529193  0.75452599  0.54963461
   0.89529196  0.75452599  0.54963461
   0.39529193  0.25452599  0.04963461
   0.89529196  0.25452599  0.04963461
   0.30239604  0.55494693  0.05620869
   0.80239607  0.55494693  0.05620869
   0.16015351  0.32142884  0.40362406
   0.66015348  0.32142884  0.40362406
   0.26361216  0.47261799  0.13781842
   0.76361219  0.47261799  0.13781842
   0.14640953  0.18563169  0.30357843
   0.64640956  0.18563169  0.30357843
   0.25133232  0.49512398  0.25092944
   0.75133235  0.49512398  0.25092944
   0.00362515  0.96130664  0.03844226
   0.50362515  0.96130664  0.03844226
   0.05232512  0.05388993  0.15065578
   0.55232510  0.05388993  0.15065578
   0.30239604  0.05494693  0.55620867
   0.80239607  0.05494693  0.55620867
   0.16015351  0.82142884  0.90362406
   0.66015348  0.82142884  0.90362406
   0.26361216  0.97261802  0.63781840
   0.76361219  0.97261802  0.63781840
   0.14640953  0.68563166  0.80357843
   0.64640956  0.68563166  0.80357843
   0.25133232  0.99512401  0.75092947
   0.75133235  0.99512401  0.75092947
   0.00362515  0.46130667  0.53844225
   0.50362515  0.46130667  0.53844225
   0.05232512  0.55388998  0.65065581
   0.55232510  0.55388998  0.65065581
   0.05172675  0.44358322  0.94455045
   0.55172677  0.44358322  0.94455045
   0.41047600  0.67787509  0.59705397
   0.91047597  0.67787509  0.59705397
   0.01414869  0.52829364  0.86234494
   0.51414867  0.52829364  0.86234494
   0.39582522  0.81262565  0.69582008
   0.89582522  0.81262565  0.69582008
   0.00152965  0.50506981  0.74820832
   0.50152968  0.50506981  0.74820832
   0.25437315  0.04084257  0.96225787
   0.75437315  0.04084257  0.96225787
   0.30245964  0.94539632  0.84938784
   0.80245961  0.94539632  0.84938784
   0.05172675  0.94358325  0.44455042
   0.55172677  0.94358325  0.44455042
   0.41047600  0.17787509  0.09705398
   0.91047597  0.17787509  0.09705398
   0.01414869  0.02829366  0.36234494
   0.51414867  0.02829366  0.36234494
   0.39582522  0.31262565  0.19582008
   0.89582522  0.31262565  0.19582008
   0.00152965  0.00506984  0.24820833
   0.50152968  0.00506984  0.24820833
   0.25437315  0.54084260  0.46225784
   0.75437315  0.54084260  0.46225784
   0.30245964  0.44539638  0.34938787
   0.80245961  0.44539638  0.34938787
   0.05473948  0.43252323  0.05436111
   0.55473947  0.43252323  0.05436111
   0.41374894  0.67681342  0.40212316
   0.91374897  0.67681342  0.40212316
   0.01337960  0.52441118  0.13799023
   0.51337957  0.52441118  0.13799023
   0.39737691  0.81584738  0.30337843
   0.89737688  0.81584738  0.30337843
   0.00115770  0.50470971  0.25080563
   0.50115769  0.50470971  0.25080563
   0.25317952  0.05083007  0.03990484
   0.75317952  0.05083007  0.03990484
   0.30387689  0.94480312  0.15136055
   0.80387689  0.94480312  0.15136055
   0.05473948  0.93252320  0.55436115
   0.55473947  0.93252320  0.55436115
   0.41374894  0.17681343  0.90212319
   0.91374897  0.17681343  0.90212319
   0.01337960  0.02441115  0.63799020
   0.51337957  0.02441115  0.63799020
   0.39737691  0.31584741  0.80337840
   0.89737688  0.31584741  0.80337840
   0.00115770  0.00470972  0.75080563
   0.50115769  0.00470972  0.75080563
   0.25317952  0.55083008  0.53990481
   0.75317952  0.55083008  0.53990481
   0.30387689  0.44480312  0.65136058
   0.80387689  0.44480312  0.65136058
   0.30598832  0.56439945  0.94639177
   0.80598832  0.56439945  0.94639177
   0.16403366  0.32332100  0.59861758
   0.66403364  0.32332100  0.59861758
   0.26312900  0.47591001  0.86214537
   0.76312900  0.47591001  0.86214537
   0.14713340  0.18673378  0.69541037
   0.64713341  0.18673378  0.69541037
   0.25125263  0.49533162  0.74834051
   0.75125260  0.49533162  0.74834051
   0.00177296  0.95199234  0.96093026
   0.50177296  0.95199234  0.96093026
   0.05447095  0.05557609  0.84869454
   0.55447095  0.05557609  0.84869454
   0.30598832  0.06439941  0.44639183
   0.80598832  0.06439941  0.44639183
   0.16403366  0.82332100  0.09861760
   0.66403364  0.82332100  0.09861760
   0.26312900  0.97590998  0.36214534
   0.76312900  0.97590998  0.36214534
   0.14713340  0.68673378  0.19541033
   0.64713341  0.68673378  0.19541033
   0.25125263  0.99533162  0.24834048
   0.75125260  0.99533162  0.24834048
   0.00177296  0.45199237  0.46093026
   0.50177296  0.45199237  0.46093026
   0.05447095  0.55557611  0.34869460
   0.55447095  0.55557611  0.34869460
   0.15860965  0.15776629  0.50017145
   0.65860962  0.15776629  0.50017145
   0.15860965  0.65776635  1.00017148
   0.65860962  0.65776635  1.00017148
   0.40901007  0.84134134  0.50087031
   0.90901004  0.84134134  0.50087031
   0.40901007  0.34134140  0.00087031
   0.90901004  0.34134140  0.00087031
   0.14737220  0.24990618  0.34657171
   0.64737218  0.24990618  0.34657171
   0.14737220  0.74990618  0.84657174
   0.64737218  0.74990618  0.84657174
   0.39490218  0.75303113  0.44934572
   0.89490221  0.75303113  0.44934572
   0.39490218  0.25303113  0.94934569
   0.89490221  0.25303113  0.94934569
BiTiFeO                                 
           1
    10.996986    0.001034    0.001346
     0.000526    5.492536   -0.003919
     0.005072    0.033337   40.829530
   Bi   Ti   O    Fe
  40  24 120   8
Direct configuration=     3
   0.12606110  0.24660246  0.10520820
   0.62606111  0.24660246  0.10520820
   0.11936656  0.27277209  0.22033898
   0.61936654  0.27277209  0.22033898
   0.12606110  0.74660246  0.60520822
   0.62606111  0.74660246  0.60520822
   0.11936656  0.77277212  0.72033894
   0.61936654  0.77277212  0.72033894
   0.37626370  0.75271965  0.89378541
   0.87626367  0.75271965  0.89378541
   0.36759231  0.72385826  0.78170662
   0.86759231  0.72385826  0.78170662
   0.37626370  0.25271965  0.39378543
   0.87626367  0.25271965  0.39378543
   0.36759231  0.22385828  0.28170656
   0.86759231  0.22385828  0.28170656
   0.37502423  0.75359963  0.10551077
   0.87502423  0.75359963  0.10551077
   0.36823128  0.72911400  0.22019553
   0.86823128  0.72911400  0.22019553
   0.37502423  0.25359965  0.60551079
   0.87502423  0.25359965  0.60551079
   0.36823128  0.22911399  0.72019556
   0.86823128  0.22911399  0.72019556
   0.12440721  0.24793944  0.89355137
   0.62440720  0.24793944  0.89355137
   0.11721642  0.27592372  0.78187401
   0.61721641  0.27592372  0.78187401
   0.12440721  0.74793947  0.39355140
   0.62440720  0.74793947  0.39355140
   0.11721642  0.77592369  0.28187404
   0.61721641  0.77592369  0.28187404
   0.12152920  0.24132658 -0.00077382
   0.62152922  0.24132658 -0.00077382
   0.12152920  0.74132658  0.49922618
   0.62152922  0.74132658  0.49922618
   0.37189407  0.75886782  0.99716592
   0.87189410  0.75886782  0.99716592
   0.37189407  0.25886782  0.49716586
   0.87189410  0.25886782  0.49716586
   0.39772114  0.74861412  0.34758365
   0.89772114  0.74861412  0.34758365
   0.39772114  0.24861412  0.84758365
   0.89772114  0.24861412  0.84758365
   0.39781737  0.74963956  0.65325639
   0.89781737  0.74963956  0.65325639
   0.39781737  0.24963958  0.15325640
   0.89781737  0.24963958  0.15325640
   0.14523737  0.24720046  0.54951953
   0.64523740  0.24720046  0.54951953
   0.14751609  0.25022402  0.65290040
   0.64751608  0.25022402  0.65290040
   0.14751609  0.75022402  0.15290040
   0.64751608  0.75022402  0.15290040
   0.14523737  0.74720044  0.04951952
   0.64523740  0.74720044  0.04951952
   0.14547323  0.24456226  0.44872894
   0.64547326  0.24456226  0.44872894
   0.14547323  0.74456226  0.94872894
   0.64547326  0.74456226  0.94872894
   0.39508046  0.75482273  0.54947411
   0.89508049  0.75482273  0.54947411
   0.39508046  0.25482273  0.04947411
   0.89508049  0.25482273  0.04947411
   0.30153971  0.55542842  0.05615775
   0.80153974  0.55542842  0.05615775
   0.15987387  0.32085578  0.40370077
   0.65987384  0.32085578  0.40370077
   0.26349554  0.47274012  0.13779871
   0.76349557  0.47274012  0.13779871
   0.14669260  0.18409704  0.30295187
   0.64669263  0.18409704  0.30295187
   0.25133306  0.49500763  0.25090037
   0.75133309  0.49500763  0.25090037
   0.00473163  0.95964089  0.03873246
   0.50473163  0.95964089  0.03873246
   0.05235189  0.05385551  0.15061432
   0.55235186  0.05385551  0.15061432
   0.30153971  0.05542843  0.55615773
   0.80153974  0.05542843  0.55615773
   0.15987387  0.82085578  0.90370077
   0.65987384  0.82085578  0.90370077
   0.26349554  0.97274015  0.63779869
   0.76349557  0.97274015  0.63779869
   0.14669260  0.68409701  0.80295187
   0.64669263  0.68409701  0.80295187
   0.25133306  0.99500766  0.75090040
   0.75133309  0.99500766  0.75090040
   0.00473163  0.45964092  0.53873245
   0.50473163  0.45964092  0.53873245
   0.05235189  0.55385556  0.65061435
   0.55235186  0.55385556  0.65061435
   0.05206100  0.44425793  0.94491349
   0.55206102  0.44425793  0.94491349
   0.41048077  0.67829902  0.59692856
   0.91048074  0.67829902  0.59692856
   0.01369727  0.52774945  0.86243574
   0.51369726  0.52774945  0.86243574
   0.39558653  0.81287309  0.69635011
   0.89558653  0.81287309  0.69635011
   0.00143504  0.50453492  0.74813143
   0.50143506  0.50453492  0.74813143
   0.25423781  0.04020040  0.96237178
   0.75423781  0.04020040  0.96237178
   0.30280622  0.94631382  0.84942036
   0.80280619  0.94631382  0.84942036
   0.05206100  0.94425796  0.44491346
   0.55206102  0.94425796  0.44491346
   0.41048077  0.17829902  0.09692858
   0.91048074  0.17829902  0.09692858
   0.01369727  0.02774947  0.36243574
   0.51369726  0.02774947  0.36243574
   0.39558653  0.31287309  0.19635011
   0.89558653  0.31287309  0.19635011
   0.00143504  0.00453495  0.24813145
   0.50143506  0.00453495  0.24813145
   0.25423781  0.54020042  0.46237175
   0.75423781  0.54020042  0.46237175
   0.30280622  0.44631388  0.34942039
   0.80280619  0.44631388  0.34942039
   0.05507297  0.43652492  0.05444824
   0.55507296  0.43652492  0.05444824
   0.41329298  0.67729628  0.40235778
   0.91329301  0.67729628  0.40235778
   0.01337218  0.52455952  0.13794950
   0.51337215  0.52455952  0.13794950
   0.39739610  0.81570211  0.30323376
   0.89739607  0.81570211  0.30323376
   0.00098371  0.50512282  0.25076438
   0.50098369  0.50512282  0.25076438
   0.25261811  0.04835165  0.04006976
   0.75261811  0.04835165  0.04006976
   0.30369218  0.94451300  0.15128064
   0.80369218  0.94451300  0.15128064
   0.05507297  0.93652489  0.55444828
   0.55507296  0.93652489  0.55444828
   0.41329298  0.17729630  0.90235781
   0.91329301  0.17729630  0.90235781
   0.01337218  0.02455949  0.63794947
   0.51337215  0.02455949  0.63794947
   0.39739610  0.31570214  0.80323373
   0.89739607  0.31570214  0.80323373
   0.00098371  0.00512283  0.75076438
   0.50098369  0.00512283  0.75076438
   0.25261811  0.54835166  0.54006973
   0.75261811  0.54835166  0.54006973
   0.30369218  0.44451300  0.65128067
   0.80369218  0.44451300  0.65128067
   0.30539561  0.56412292  0.94666818
   0.80539561  0.56412292  0.94666818
   0.16336970  0.32231253  0.59802226
   0.66336969  0.32231253  0.59802226
   0.26362865  0.47505051  0.86219245
   0.76362865  0.47505051  0.86219245
   0.14683882  0.18636086  0.69604943
   0.64683883  0.18636086  0.69604943
   0.25131325  0.49535465  0.74826623
   0.75131322  0.49535465  0.74826623
   0.00245413  0.95260148  0.96108648
   0.50245413  0.95260148  0.96108648
   0.05406562  0.05648092  0.84876524
   0.55406562  0.05648092  0.84876524
   0.30539561  0.06412287  0.44666824
   0.80539561  0.06412287  0.44666824
   0.16336970  0.82231253  0.09802228
   0.66336969  0.82231253  0.09802228
   0.26362865  0.97505048  0.36219242
   0.76362865  0.97505048  0.36219242
   0.14683882  0.68636086  0.19604939
   0.64683883  0.68636086  0.19604939
   0.25131325  0.99535465  0.24826620
   0.75131322  0.99535465  0.24826620
   0.00245413  0.45260151  0.46108648
   0.50245413  0.45260151  0.46108648
   0.05406562  0.55648094  0.34876530
   0.55406562  0.55648094  0.34876530
   0.15850538  0.15937556  0.50064693
   0.65850535  0.15937556  0.50064693
   0.15850538  0.65937562  1.00064696
   0.65850535  0.65937562  1.00064696
   0.40910311  0.84020948  0.50105573
   0.90910308  0.84020948  0.50105573
   0.40910311  0.34020954  0.00105573
   0.90910308  0.34020954  0.00105573
   0.14719218  0.24956718  0.34665347
   0.64719217  0.24956718  0.34665347
   0.14719218  0.74956718  0.84665350
   0.64719217  0.74956718  0.84665350
   0.39495049  0.75285261  0.44905573
   0.89495052  0.75285261  0.44905573
   0.39495049  0.25285261  0.94905570
   0.89495052  0.25285261  0.94905570
BiTiFeO                                 
           1
    10.992467    0.000552    0.000002
     0.000285    5.490007   -0.003633
     0.000082    0.035518   40.915230
   Bi   Ti   O    Fe
  40  24 120   8
Direct configuration=     4
   0.12624018  0.24726679  0.10525034
   0.62624019  0.24726679  0.10525034
   0.11982723  0.27161508  0.22068203
   0.61982721  0.27161508  0.22068203
   0.12624018  0.74726679  0.60525036
   0.62624019  0.74726679  0.60525036
   0.11982723  0.77161511  0.72068198
   0.61982721  0.77161511  0.72068198
   0.37689064  0.75155882  0.89336583
   0.87689061  0.75155882  0.89336583
   0.36620092  0.72407072  0.78174434
   0.86620092  0.72407072  0.78174434
   0.37689064  0.25155882  0.39336586
   0.87689061  0.25155882  0.39336586
   0.36620092  0.22407074  0.28174428
   0.86620092  0.22407074  0.28174428
   0.37554781  0.75312689  0.10554668
   0.87554781  0.75312689  0.10554668
   0.36916320  0.72998966  0.22044239
   0.86916320  0.72998966  0.22044239
   0.37554781  0.25312691  0.60554670
   0.87554781  0.25312691  0.60554670
   0.36916320  0.22998965  0.72044242
   0.86916320  0.22998965  0.72044242
   0.12477337  0.24949187  0.89316891
   0.62477336  0.24949187  0.89316891
   0.11705739  0.27866939  0.78196310
   0.61705739  0.27866939  0.78196310
   0.12477337  0.74949190  0.39316894
   0.62477336  0.74949190  0.39316894
   0.11705739  0.77866936  0.28196313
   0.61705739  0.77866936  0.28196313
   0.12144822  0.24108395 -0.00164195
   0.62144824  0.24108395 -0.00164195
   0.12144822  0.74108395  0.49835805
   0.62144824  0.74108395  0.49835805
   0.37229246  0.75858768  0.99643232
   0.87229249  0.75858768  0.99643232
   0.37229246  0.25858768  0.49643226
   0.87229249  0.25858768  0.49643226
   0.39765855  0.74981221  0.34718514
   0.89765855  0.74981221  0.34718514
   0.39765855  0.24981221  0.84718514
   0.89765855  0.24981221  0.84718514
   0.39770107  0.75069787  0.65384165
   0.89770107  0.75069787  0.65384165
   0.39770107  0.25069788  0.15384166
   0.89770107  0.25069788  0.15384166
   0.14551532  0.24657832  0.54939118
   0.64551535  0.24657832  0.54939118
   0.14756193  0.24890993  0.65359162
   0.64756191  0.24890993  0.65359162
   0.14756193  0.74890993  0.15359162
   0.64756191  0.74890993  0.15359162
   0.14551532  0.74657831  0.04939117
   0.64551535  0.74657831  0.04939117
   0.14535250  0.24470264  0.44890695
   0.64535253  0.24470264  0.44890695
   0.14535250  0.74470264  0.94890695
   0.64535253  0.74470264  0.94890695
   0.39477582  0.75515214  0.54920209
   0.89477585  0.75515214  0.54920209
   0.39477582  0.25515214  0.04920208
   0.89477585  0.25515214  0.04920208
   0.30082774  0.55485013  0.05608505
   0.80082777  0.55485013  0.05608505
   0.15937703  0.31989776  0.40387664
   0.65937700  0.31989776  0.40387664
   0.26336006  0.47301233  0.13769690
   0.76336009  0.47301233  0.13769690
   0.14733601  0.18235738  0.30263014
   0.64733604  0.18235738  0.30263014
   0.25153672  0.49475329  0.25100794
   0.75153675  0.49475329  0.25100794
   0.00598667  0.95807995  0.03918118
   0.50598667  0.95807995  0.03918118
   0.05239169  0.05367617  0.15038750
   0.55239167  0.05367617  0.15038750
   0.30082774  0.05485014  0.55608503
   0.80082777  0.05485014  0.55608503
   0.15937703  0.81989776  0.90387664
   0.65937700  0.81989776  0.90387664
   0.26336006  0.97301236  0.63769688
   0.76336009  0.97301236  0.63769688
   0.14733601  0.68235735  0.80263014
   0.64733604  0.68235735  0.80263014
   0.25153672  0.99475332  0.75100797
   0.75153675  0.99475332  0.75100797
   0.00598667  0.45807998  0.53918117
   0.50598667  0.45807998  0.53918117
   0.05239169  0.55367622  0.65038753
   0.55239167  0.55367622  0.65038753
   0.05256333  0.44508988  0.94556776
   0.55256335  0.44508988  0.94556776
   0.41055705  0.67904890  0.59669954
   0.91055702  0.67904890  0.59669954
   0.01318742  0.52714636  0.86260076
   0.51318741  0.52714636  0.86260076
   0.39527893  0.81118805  0.69580547
   0.89527893  0.81118805  0.69580547
   0.00127060  0.50351346  0.74826339
   0.50127063  0.50351346  0.74826339
   0.25427274  0.03891817  0.96247349
   0.75427274  0.03891817  0.96247349
   0.30320756  0.94733435  0.84961921
   0.80320753  0.94733435  0.84961921
   0.05256333  0.94508991  0.44556773
   0.55256335  0.94508991  0.44556773
   0.41055705  0.17904890  0.09669956
   0.91055702  0.17904890  0.09669956
   0.01318742  0.02714638  0.36260076
   0.51318741  0.02714638  0.36260076
   0.39527893  0.31118805  0.19580547
   0.89527893  0.31118805  0.19580547
   0.00127060  0.00351349  0.24826341
   0.50127063  0.00351349  0.24826341
   0.25427274  0.53891819  0.46247346
   0.75427274  0.53891819  0.46247346
   0.30320756  0.44733441  0.34961924
   0.80320753  0.44733441  0.34961924
   0.05481470  0.44206299  0.05466454
   0.55481469  0.44206299  0.05466454
   0.41257778  0.67808252  0.40276112
   0.91257780  0.67808252  0.40276112
   0.01339846  0.52477758  0.13781186
   0.51339843  0.52477758  0.13781186
   0.39745530  0.81468648  0.30358191
   0.89745527  0.81468648  0.30358191
   0.00083393  0.50579835  0.25085469
   0.50083392  0.50579835  0.25085469
   0.25242018  0.04550408  0.04026795
   0.75242018  0.04550408  0.04026795
   0.30334193  0.94422736  0.15096352
   0.80334193  0.94422736  0.15096352
   0.05481470  0.94206296  0.55466458
   0.55481469  0.94206296  0.55466458
   0.41257778  0.17808254  0.90276115
   0.91257780  0.17808254  0.90276115
   0.01339846  0.02477756  0.63781183
   0.51339843  0.02477756  0.63781183
   0.39745530  0.31468651  0.80358188
   0.89745527  0.31468651  0.80358188
   0.00083393  0.00579836  0.75085469
   0.50083392  0.00579836  0.75085469
   0.25242018  0.54550409  0.54026792
   0.75242018  0.54550409  0.54026792
   0.30334193  0.44422736  0.65096355
   0.80334193  0.44422736  0.65096355
   0.30443920  0.56341651  0.94713024
   0.80443920  0.56341651  0.94713024
   0.16223678  0.32094235  0.59720454
   0.66223676  0.32094235  0.59720454
   0.26425736  0.47414991  0.86230171
   0.76425736  0.47414991  0.86230171
   0.14636358  0.18798318  0.69556753
   0.64636360  0.18798318  0.69556753
   0.25152420  0.49542213  0.74837729
   0.75152417  0.49542213  0.74837729
   0.00389747  0.95416470  0.96127469
   0.50389746  0.95416470  0.96127469
   0.05356177  0.05764169  0.84903664
   0.55356176  0.05764169  0.84903664
   0.30443920  0.06341647  0.44713030
   0.80443920  0.06341647  0.44713030
   0.16223678  0.82094235  0.09720456
   0.66223676  0.82094235  0.09720456
   0.26425736  0.97414988  0.36230168
   0.76425736  0.97414988  0.36230168
   0.14636358  0.68798318  0.19556749
   0.64636360  0.68798318  0.19556749
   0.25152420  0.99542213  0.24837726
   0.75152417  0.99542213  0.24837726
   0.00389747  0.45416473  0.46127469
   0.50389746  0.45416473  0.46127469
   0.05356177  0.55764171  0.34903670
   0.55356176  0.55764171  0.34903670
   0.15854664  0.16191325  0.50116208
   0.65854661  0.16191325  0.50116208
   0.15854664  0.66191331  1.00116211
   0.65854661  0.66191331  1.00116211
   0.40936587  0.83801534  0.50129803
   0.90936585  0.83801534  0.50129803
   0.40936587  0.33801540  0.00129803
   0.90936585  0.33801540  0.00129803
   0.14692206  0.24864828  0.34611274
   0.64692205  0.24864828  0.34611274
   0.14692206  0.74864828  0.84611277
   0.64692205  0.74864828  0.84611277