BiTiFeO                                 
           1
    10.947312    0.002128    0.002370
     0.001067    5.466497    0.001043
     0.008844    0.069821   40.649478
   Bi   Ti   O    Fe
  40  24 120   8
Direct configuration=     1
   0.12581734  0.24552768  0.10456018
   0.62581736  0.24552768  0.10456018
   0.11884221  0.27533320  0.21951799
   0.61884218  0.27533320  0.21951799
   0.12581734  0.74552768  0.60456020
   0.62581736  0.74552768  0.60456020
   0.11884221  0.77533323  0.71951795
   0.61884218  0.77533323  0.71951795
   0.37581733  0.75447232  0.89543980
   0.87581730  0.75447232  0.89543980
   0.36884218  0.72466677  0.78048205
   0.86884218  0.72466677  0.78048205
   0.37581733  0.25447232  0.39543983
   0.87581730  0.25447232  0.39543983
   0.36884218  0.22466679  0.28048199
   0.86884218  0.22466679  0.28048199
   0.37389028  0.75425547  0.10488448
   0.87389028  0.75425547  0.10488448
   0.36734301  0.72707325  0.21940872
   0.86734301  0.72707325  0.21940872
   0.37389028  0.25425550  0.60488451
   0.87389028  0.25425550  0.60488451
   0.36734301  0.22707324  0.71940875
   0.86734301  0.22707324  0.71940875
   0.12389029  0.24574450  0.89511549
   0.62389028  0.24574450  0.89511549
   0.11734302  0.27292678  0.78059125
   0.61734301  0.27292678  0.78059125
   0.12389029  0.74574453  0.39511553
   0.62389028  0.74574453  0.39511553
   0.11734302  0.77292675  0.28059128
   0.61734301  0.77292675  0.28059128
   0.12124083  0.24192810  0.00106251
   0.62124085  0.24192810  0.00106251
   0.12124083  0.74192810  0.50106251
   0.62124085  0.74192810  0.50106251
   0.37124082  0.75807190  0.99893749
   0.87124085  0.75807190  0.99893749
   0.37124082  0.25807190  0.49893743
   0.87124085  0.25807190  0.49893743
   0.14778419  0.25003338  0.34690401
   0.64778417  0.25003338  0.34690401
   0.14778419  0.75003338  0.84690404
   0.64778417  0.75003338  0.84690404
   0.39737403  0.74971396  0.34751427
   0.89737403  0.74971396  0.34751427
   0.39737403  0.24971396  0.84751427
   0.89737403  0.24971396  0.84751427
   0.39778417  0.74996662  0.65309596
   0.89778417  0.74996662  0.65309596
   0.39778417  0.24996664  0.15309598
   0.89778417  0.24996664  0.15309598
   0.39509413  0.75150693  0.45036468
   0.89509416  0.75150693  0.45036468
   0.39509413  0.25150693  0.95036465
   0.89509416  0.25150693  0.95036465
   0.14737405  0.25028604  0.65248573
   0.64737403  0.25028604  0.65248573
   0.14737405  0.75028604  0.15248573
   0.64737403  0.75028604  0.15248573
   0.39572605  0.75503856  0.54978108
   0.89572608  0.75503856  0.54978108
   0.39572605  0.25503856  0.04978108
   0.89572608  0.25503856  0.04978108
   0.30398616  0.55333757  0.05623510
   0.80398619  0.55333757  0.05623510
   0.16037145  0.32244712  0.40269166
   0.66037142  0.32244712  0.40269166
   0.26384732  0.47232899  0.13806446
   0.76384735  0.47232899  0.13806446
   0.14598581  0.18621907  0.30358261
   0.64598584  0.18621907  0.30358261
   0.25139269  0.49499974  0.25136027
   0.75139272  0.49499974  0.25136027
   0.00183105  0.96418035  0.03809405
   0.50183105  0.96418035  0.03809405
   0.05208983  0.05360783  0.15095773
   0.55208981  0.05360783  0.15095773
   0.30398616  0.05333758  0.55623508
   0.80398619  0.05333758  0.55623508
   0.16037145  0.82244712  0.90269166
   0.66037142  0.82244712  0.90269166
   0.26384732  0.97232902  0.63806444
   0.76384735  0.97232902  0.63806444
   0.14598581  0.68621904  0.80358261
   0.64598584  0.68621904  0.80358261
   0.25139269  0.99499977  0.75136030
   0.75139272  0.99499977  0.75136030
   0.00183105  0.46418038  0.53809404
   0.50183105  0.46418038  0.53809404
   0.05208983  0.55360788  0.65095776
   0.55208981  0.55360788  0.65095776
   0.05398618  0.44666240  0.94376492
   0.55398619  0.44666240  0.94376492
   0.41037145  0.67755288  0.59730834
   0.91037142  0.67755288  0.59730834
   0.01384731  0.52767098  0.86193556
   0.51384729  0.52767098  0.86193556
   0.39598584  0.81378096  0.69641739
   0.89598584  0.81378096  0.69641739
   0.00139270  0.50500023  0.74863970
   0.50139272  0.50500023  0.74863970
   0.25183105  0.03581963  0.96190596
   0.75183105  0.03581963  0.96190596
   0.30208984  0.94639212  0.84904224
   0.80208981  0.94639212  0.84904224
   0.05398618  0.94666243  0.44376490
   0.55398619  0.94666243  0.44376490
   0.41037145  0.17755288  0.09730835
   0.91037142  0.17755288  0.09730835
   0.01384731  0.02767100  0.36193556
   0.51384729  0.02767100  0.36193556
   0.39598584  0.31378096  0.19641739
   0.89598584  0.31378096  0.19641739
   0.00139270  0.00500026  0.24863972
   0.50139272  0.00500026  0.24863972
   0.25183105  0.53581965  0.46190593
   0.75183105  0.53581965  0.46190593
   0.30208984  0.44639218  0.34904227
   0.80208981  0.44639218  0.34904227
   0.05373246  0.42657372  0.05429961
   0.55373246  0.42657372  0.05429961
   0.41462371  0.67528647  0.40033671
   0.91462374  0.67528647  0.40033671
   0.01342812  0.52419931  0.13827106
   0.51342809  0.52419931  0.13827106
   0.39733556  0.81472349  0.30391791
   0.89733553  0.81472349  0.30391791
   0.00137807  0.50483209  0.25127208
   0.50137806  0.50483209  0.25127208
   0.25423092  0.05460011  0.03958693
   0.75423092  0.05460011  0.03958693
   0.30389983  0.94555801  0.15167758
   0.80389983  0.94555801  0.15167758
   0.05373246  0.92657369  0.55429965
   0.55373246  0.92657369  0.55429965
   0.41462371  0.17528649  0.90033674
   0.91462374  0.17528649  0.90033674
   0.01342812  0.02419928  0.63827103
   0.51342809  0.02419928  0.63827103
   0.39733556  0.31472352  0.80391788
   0.89733553  0.31472352  0.80391788
   0.00137807  0.00483209  0.75127208
   0.50137806  0.00483209  0.75127208
   0.25423092  0.55460012  0.53958690
   0.75423092  0.55460012  0.53958690
   0.30389983  0.44555801  0.65167761
   0.80389983  0.44555801  0.65167761
   0.30373246  0.57342631  0.94570035
   0.80373246  0.57342631  0.94570035
   0.16462369  0.32471353  0.59966326
   0.66462368  0.32471353  0.59966326
   0.26342809  0.47580072  0.86172897
   0.76342809  0.47580072  0.86172897
   0.14733557  0.18527651  0.69608212
   0.64733559  0.18527651  0.69608212
   0.25137809  0.49516791  0.74872792
   0.75137806  0.49516791  0.74872792
   0.00423092  0.94539988  0.96041310
   0.50423092  0.94539988  0.96041310
   0.05389983  0.05444197  0.84832239
   0.55389983  0.05444197  0.84832239
   0.30373246  0.07342626  0.44570041
   0.80373246  0.07342626  0.44570041
   0.16462369  0.82471353  0.09966327
   0.66462368  0.82471353  0.09966327
   0.26342809  0.97580069  0.36172894
   0.76342809  0.97580069  0.36172894
   0.14733557  0.68527651  0.19608207
   0.64733559  0.68527651  0.19608207
   0.25137809  0.99516791  0.24872789
   0.75137806  0.99516791  0.24872789
   0.00423092  0.44539991  0.46041310
   0.50423092  0.44539991  0.46041310
   0.05389983  0.55444199  0.34832245
   0.55389983  0.55444199  0.34832245
   0.15875485  0.15670252  0.49889919
   0.65875483  0.15670252  0.49889919
   0.15875485  0.65670258  0.99889922
   0.65875483  0.65670258  0.99889922
   0.40875485  0.84329742  0.50110078
   0.90875483  0.84329742  0.50110078
   0.40875485  0.34329748  0.00110078
   0.90875483  0.34329748  0.00110078
   0.14509413  0.24849309  0.54963535
   0.64509416  0.24849309  0.54963535
   0.14509413  0.74849307  0.04963534
   0.64509416  0.74849307  0.04963534
   0.14572605  0.24496144  0.45021892
   0.64572608  0.24496144  0.45021892
   0.14572605  0.74496144  0.95021892
   0.64572608  0.74496144  0.95021892
BiTiFeO                                 
           1
    11.008848    0.002070    0.002477
     0.001038    5.498634   -0.002540
     0.009247    0.043552   40.869339
   Bi   Ti   O    Fe
  40  24 120   8
Direct configuration=     2
   0.12589643  0.24574974  0.10435461
   0.62589644  0.24574974  0.10435461
   0.11881004  0.27526719  0.21952500
   0.61881002  0.27526719  0.21952500
   0.12589643  0.74574974  0.60435463
   0.62589644  0.74574974  0.60435463
   0.11881004  0.77526722  0.71952495
   0.61881002  0.77526722  0.71952495
   0.37459653  0.75310897  0.89562577
   0.87459650  0.75310897  0.89562577
   0.36877239  0.72482374  0.78049595
   0.86877239  0.72482374  0.78049595
   0.37459653  0.25310897  0.39562580
   0.87459650  0.25310897  0.39562580
   0.36877239  0.22482376  0.28049589
   0.86877239  0.22482376  0.28049589
   0.37368721  0.75367665  0.10465036
   0.87368721  0.75367665  0.10465036
   0.36732217  0.72708523  0.21940676
   0.86732217  0.72708523  0.21940676
   0.37368721  0.25367668  0.60465038
   0.87368721  0.25367668  0.60465038
   0.36732217  0.22708521  0.71940679
   0.86732217  0.22708521  0.71940679
   0.12510996  0.24517548  0.89536789
   0.62510995  0.24517548  0.89536789
   0.11735228  0.27306025  0.78060711
   0.61735227  0.27306025  0.78060711
   0.12510996  0.74517551  0.39536792
   0.62510995  0.74517551  0.39536792
   0.11735228  0.77306022  0.28060714
   0.61735227  0.77306022  0.28060714
   0.12260941  0.24245969  0.00111743
   0.62260943  0.24245969  0.00111743
   0.12260941  0.74245969  0.50111743
   0.62260943  0.74245969  0.50111743
   0.37058989  0.75959954  0.99892408
   0.87058992  0.75959954  0.99892408
   0.37058989  0.25959954  0.49892402
   0.87058992  0.25959954  0.49892402
   0.14769009  0.25033581  0.34734313
   0.64769007  0.25033581  0.34734313
   0.14769009  0.75033581  0.84734316
   0.64769007  0.75033581  0.84734316
   0.39740239  0.75060808  0.34701759
   0.89740239  0.75060808  0.34701759
   0.39740239  0.25060808  0.84701759
   0.89740239  0.25060808  0.84701759
   0.39776545  0.75008960  0.65309000
   0.89776545  0.75008960  0.65309000
   0.39776545  0.25008961  0.15309002
   0.89776545  0.25008961  0.15309002
   0.39614379  0.75366393  0.45023626
   0.89614382  0.75366393  0.45023626
   0.39614379  0.25366393  0.95023623
   0.89614382  0.25366393  0.95023623
   0.14735234  0.24996389  0.65257188
   0.64735232  0.24996389  0.65257188
   0.14735234  0.74996389  0.15257188
   0.64735232  0.74996389  0.15257188
   0.39542181  0.75400608  0.55026258
   0.89542184  0.75400608  0.55026258
   0.39542181  0.25400608  0.05026257
   0.89542184  0.25400608  0.05026257
   0.30224776  0.55627774  0.05609726
   0.80224779  0.55627774  0.05609726
   0.16128062  0.32356506  0.40242617
   0.66128059  0.32356506  0.40242617
   0.26391204  0.47232409  0.13809232
   0.76391207  0.47232409  0.13809232
   0.14598733  0.18602185  0.30347718
   0.64598736  0.18602185  0.30347718
   0.25136219  0.49503893  0.25135016
   0.75136222  0.49503893  0.25135016
   0.00407522  0.96008200  0.03833360
   0.50407522  0.96008200  0.03833360
   0.05209326  0.05350749  0.15096936
   0.55209323  0.05350749  0.15096936
   0.30224776  0.05627774  0.55609723
   0.80224779  0.05627774  0.55609723
   0.16128062  0.82356506  0.90242617
   0.66128059  0.82356506  0.90242617
   0.26391204  0.97232412  0.63809231
   0.76391207  0.97232412  0.63809231
   0.14598733  0.68602182  0.80347718
   0.64598736  0.68602182  0.80347718
   0.25136219  0.99503896  0.75135019
   0.75136222  0.99503896  0.75135019
   0.00407522  0.46008203  0.53833359
   0.50407522  0.46008203  0.53833359
   0.05209326  0.55350754  0.65096939
   0.55209323  0.55350754  0.65096939
   0.04933697  0.43807524  0.94402884
   0.54933699  0.43807524  0.94402884
   0.41038976  0.67774114  0.59729224
   0.91038973  0.67774114  0.59729224
   0.01331722  0.52671886  0.86183585
   0.51331721  0.52671886  0.86183585
   0.39598559  0.81373785  0.69641729
   0.89598559  0.81373785  0.69641729
   0.00137117  0.50491527  0.74864190
   0.50137119  0.50491527  0.74864190
   0.25711562  0.04526353  0.96155703
   0.75711562  0.04526353  0.96155703
   0.30262859  0.94727940  0.84900030
   0.80262856  0.94727940  0.84900030
   0.04933697  0.93807527  0.44402881
   0.54933699  0.93807527  0.44402881
   0.41038976  0.17774114  0.09729225
   0.91038973  0.17774114  0.09729225
   0.01331722  0.02671888  0.36183585
   0.51331721  0.02671888  0.36183585
   0.39598559  0.31373785  0.19641729
   0.89598559  0.31373785  0.19641729
   0.00137117  0.00491530  0.24864192
   0.50137119  0.00491530  0.24864192
   0.25711562  0.54526355  0.46155700
   0.75711562  0.54526355  0.46155700
   0.30262859  0.44727946  0.34900033
   0.80262856  0.44727946  0.34900033
   0.05568822  0.43500608  0.05426615
   0.55568822  0.43500608  0.05426615
   0.41292344  0.67799061  0.40198905
   0.91292347  0.67799061  0.40198905
   0.01345245  0.52425348  0.13828028
   0.51345242  0.52425348  0.13828028
   0.39729235  0.81444000  0.30401399
   0.89729232  0.81444000  0.30401399
   0.00134746  0.50483823  0.25126146
   0.50134745  0.50483823  0.25126146
   0.25273244  0.04901799  0.03962355
   0.75273244  0.04901799  0.03962355
   0.30378171  0.94549214  0.15167037
   0.80378171  0.94549214  0.15167037
   0.05568822  0.93500605  0.55426619
   0.55568822  0.93500605  0.55426619
   0.41292344  0.17799063  0.90198908
   0.91292347  0.17799063  0.90198908
   0.01345245  0.02425345  0.63828025
   0.51345242  0.02425345  0.63828025
   0.39729235  0.31444003  0.80401396
   0.89729232  0.31444003  0.80401396
   0.00134746  0.00483824  0.75126146
   0.50134745  0.00483824  0.75126146
   0.25273244  0.54901800  0.53962353
   0.75273244  0.54901800  0.53962353
   0.30378171  0.44549214  0.65167040
   0.80378171  0.44549214  0.65167040
   0.30770609  0.55896905  0.94572342
   0.80770609  0.55896905  0.94572342
   0.16405474  0.32362588  0.59859120
   0.66405473  0.32362588  0.59859120
   0.26405569  0.47483421  0.86175290
   0.76405569  0.47483421  0.86175290
   0.14733358  0.18537607  0.69605837
   0.64733360  0.18537607  0.69605837
   0.25134155  0.49510814  0.74872670
   0.75134152  0.49510814  0.74872670
   0.00021531  0.95673591  0.96033707
   0.50021530  0.95673591  0.96033707
   0.05326537  0.05526369  0.84834029
   0.55326537  0.05526369  0.84834029
   0.30770609  0.05896900  0.44572348
   0.80770609  0.05896900  0.44572348
   0.16405474  0.82362588  0.09859122
   0.66405473  0.82362588  0.09859122
   0.26405569  0.97483418  0.36175287
   0.76405569  0.97483418  0.36175287
   0.14733358  0.68537607  0.19605833
   0.64733360  0.68537607  0.19605833
   0.25134155  0.99510814  0.24872667
   0.75134152  0.99510814  0.24872667
   0.00021531  0.45673594  0.46033707
   0.50021530  0.45673594  0.46033707
   0.05326537  0.55526371  0.34834035
   0.55326537  0.55526371  0.34834035
   0.15941766  0.15711537  0.49997368
   0.65941763  0.15711537  0.49997368
   0.15941766  0.65711543  0.99997371
   0.65941763  0.65711543  0.99997371
   0.40855291  0.84035268  0.49974165
   0.90855288  0.84035268  0.49974165
   0.40855291  0.34035274 -0.00025835
   0.90855288  0.34035274 -0.00025835
   0.14460108  0.24693205  0.54955134
   0.64460111  0.24693205  0.54955134
   0.14460108  0.74693204  0.04955133
   0.64460111  0.74693204  0.04955133
   0.14461227  0.24542592  0.44998255
   0.64461230  0.24542592  0.44998255
   0.14461227  0.74542592  0.94998255
   0.64461230  0.74542592  0.94998255
BiTiFeO                                 
           1
    11.005873    0.002081    0.002282
     0.001044    5.496063   -0.003820
     0.008549    0.033964   40.757958
   Bi   Ti   O    Fe
  40  24 120   8
Direct configuration=     3
   0.12639405  0.24592577  0.10414880
   0.62639407  0.24592577  0.10414880
   0.11895752  0.27460834  0.21934772
   0.61895749  0.27460834  0.21934772
   0.12639405  0.74592577  0.60414882
   0.62639407  0.74592577  0.60414882
   0.11895752  0.77460837  0.71934767
   0.61895749  0.77460837  0.71934767
   0.37482801  0.75298255  0.89587729
   0.87482798  0.75298255  0.89587729
   0.36879275  0.72569772  0.78068412
   0.86879275  0.72569772  0.78068412
   0.37482801  0.25298255  0.39587732
   0.87482798  0.25298255  0.39587732
   0.36879275  0.22569774  0.28068406
   0.86879275  0.22569774  0.28068406
   0.37378313  0.75301917  0.10442041
   0.87378313  0.75301917  0.10442041
   0.36755944  0.72763934  0.21921161
   0.86755944  0.72763934  0.21921161
   0.37378313  0.25301919  0.60442043
   0.87378313  0.25301919  0.60442043
   0.36755944  0.22763933  0.71921164
   0.86755944  0.22763933  0.71921164
   0.12529545  0.24541559  0.89562016
   0.62529545  0.24541559  0.89562016
   0.11767484  0.27275234  0.78080157
   0.61767483  0.27275234  0.78080157
   0.12529545  0.74541561  0.39562019
   0.62529545  0.74541561  0.39562019
   0.11767484  0.77275231  0.28080160
   0.61767483  0.77275231  0.28080160
   0.12292807  0.24234696  0.00102163
   0.62292809  0.24234696  0.00102163
   0.12292807  0.74234696  0.50102163
   0.62292809  0.74234696  0.50102163
   0.37064921  0.76018793  0.99893218
   0.87064924  0.76018793  0.99893218
   0.37064921  0.26018793  0.49893212
   0.87064924  0.26018793  0.49893212
   0.14750913  0.25026662  0.34730665
   0.64750912  0.25026662  0.34730665
   0.14750913  0.75026662  0.84730668
   0.64750912  0.75026662  0.84730668
   0.39764230  0.75009009  0.34747857
   0.89764230  0.75009009  0.34747857
   0.39764230  0.25009009  0.84747857
   0.89764230  0.25009009  0.84747857
   0.39781394  0.74990972  0.65297680
   0.89781394  0.74990972  0.65297680
   0.39781394  0.24990974  0.15297682
   0.89781394  0.24990974  0.15297682
   0.39655506  0.75260716  0.45026507
   0.89655509  0.75260716  0.45026507
   0.39655506  0.25260716  0.95026504
   0.89655509  0.25260716  0.95026504
   0.14732371  0.25018736  0.65233652
   0.64732369  0.25018736  0.65233652
   0.14732371  0.75018736  0.15233652
   0.64732369  0.75018736  0.15233652
   0.39542467  0.75416374  0.54990467
   0.89542470  0.75416374  0.54990467
   0.39542467  0.25416374  0.04990467
   0.89542470  0.25416374  0.04990467
   0.30256716  0.55517530  0.05602839
   0.80256719  0.55517530  0.05602839
   0.16149349  0.32283750  0.40242302
   0.66149346  0.32283750  0.40242302
   0.26382475  0.47228199  0.13809816
   0.76382478  0.47228199  0.13809816
   0.14596164  0.18623230  0.30348138
   0.64596167  0.18623230  0.30348138
   0.25130616  0.49510534  0.25138248
   0.75130619  0.49510534  0.25138248
   0.00394628  0.96055525  0.03850814
   0.50394628  0.96055525  0.03850814
   0.05208480  0.05347178  0.15100807
   0.55208478  0.05347178  0.15100807
   0.30256716  0.05517530  0.55602837
   0.80256719  0.05517530  0.55602837
   0.16149349  0.82283750  0.90242302
   0.66149346  0.82283750  0.90242302
   0.26382475  0.97228202  0.63809814
   0.76382478  0.97228202  0.63809814
   0.14596164  0.68623227  0.80348138
   0.64596167  0.68623227  0.80348138
   0.25130616  0.99510536  0.75138251
   0.75130619  0.99510536  0.75138251
   0.00394628  0.46055528  0.53850813
   0.50394628  0.46055528  0.53850813
   0.05208480  0.55347183  0.65100810
   0.55208478  0.55347183  0.65100810
   0.05071245  0.44021382  0.94411864
   0.55071247  0.44021382  0.94411864
   0.41029851  0.67835423  0.59737731
   0.91029848  0.67835423  0.59737731
   0.01329503  0.52682280  0.86179693
   0.51329501  0.52682280  0.86179693
   0.39589888  0.81375606  0.69666543
   0.89589888  0.81375606  0.69666543
   0.00125279  0.50475222  0.74860851
   0.50125282  0.50475222  0.74860851
   0.25635000  0.04399243  0.96142217
   0.75635000  0.04399243  0.96142217
   0.30253985  0.94716719  0.84893480
   0.80253982  0.94716719  0.84893480
   0.05071245  0.94021385  0.44411861
   0.55071247  0.94021385  0.44411861
   0.41029851  0.17835423  0.09737733
   0.91029848  0.17835423  0.09737733
   0.01329503  0.02682282  0.36179693
   0.51329501  0.02682282  0.36179693
   0.39589888  0.31375606  0.19666543
   0.89589888  0.31375606  0.19666543
   0.00125279  0.00475225  0.24860853
   0.50125282  0.00475225  0.24860853
   0.25635000  0.54399245  0.46142214
   0.75635000  0.54399245  0.46142214
   0.30253985  0.44716725  0.34893483
   0.80253982  0.44716725  0.34893483
   0.05494797  0.43573243  0.05430440
   0.55494796  0.43573243  0.05430440
   0.41227806  0.67816212  0.40202399
   0.91227809  0.67816212  0.40202399
   0.01339756  0.52430541  0.13829664
   0.51339753  0.52430541  0.13829664
   0.39712685  0.81477490  0.30345677
   0.89712682  0.81477490  0.30345677
   0.00119992  0.50485868  0.25128670
   0.50119991  0.50485868  0.25128670
   0.25339204  0.04851815  0.03972621
   0.75339204  0.04851815  0.03972621
   0.30358850  0.94534326  0.15168676
   0.80358850  0.94534326  0.15168676
   0.05494797  0.93573240  0.55430444
   0.55494796  0.93573240  0.55430444
   0.41227806  0.17816214  0.90202402
   0.91227809  0.17816214  0.90202402
   0.01339756  0.02430538  0.63829661
   0.51339753  0.02430538  0.63829661
   0.39712685  0.31477493  0.80345674
   0.89712682  0.31477493  0.80345674
   0.00119992  0.00485868  0.75128670
   0.50119991  0.00485868  0.75128670
   0.25339204  0.54851816  0.53972618
   0.75339204  0.54851816  0.53972618
   0.30358850  0.44534326  0.65168679
   0.80358850  0.44534326  0.65168679
   0.30617082  0.55975641  0.94561384
   0.80617082  0.55975641  0.94561384
   0.16375408  0.32330162  0.59841210
   0.66375407  0.32330162  0.59841210
   0.26393058  0.47490898  0.86174424
   0.76393058  0.47490898  0.86174424
   0.14723382  0.18531387  0.69634297
   0.64723383  0.18531387  0.69634297
   0.25126647  0.49503681  0.74870008
   0.75126644  0.49503681  0.74870008
   0.00131457  0.95606547  0.96030631
   0.50131457  0.95606547  0.96030631
   0.05316391  0.05529058  0.84835685
   0.55316390  0.05529058  0.84835685
   0.30617082  0.05975636  0.44561390
   0.80617082  0.05975636  0.44561390
   0.16375408  0.82330162  0.09841212
   0.66375407  0.82330162  0.09841212
   0.26393058  0.97490895  0.36174421
   0.76393058  0.97490895  0.36174421
   0.14723382  0.68531387  0.19634293
   0.64723383  0.68531387  0.19634293
   0.25126647  0.99503681  0.24870005
   0.75126644  0.99503681  0.24870005
   0.00131457  0.45606550  0.46030631
   0.50131457  0.45606550  0.46030631
   0.05316391  0.55529060  0.34835691
   0.55316390  0.55529060  0.34835691
   0.15959887  0.15824744  0.49993756
   0.65959884  0.15824744  0.49993756
   0.15959887  0.65824750  0.99993759
   0.65959884  0.65824750  0.99993759
   0.40863159  0.83940852  0.49993874
   0.90863156  0.83940852  0.49993874
   0.40863159  0.33940858 -0.00006126
   0.90863156  0.33940858 -0.00006126
   0.14441362  0.24705415  0.54954505
   0.64441365  0.24705415  0.54954505
   0.14441362  0.74705414  0.04954504
   0.64441365  0.74705414  0.04954504
   0.14392754  0.24540241  0.45013352
   0.64392757  0.24540241  0.45013352
   0.14392754  0.74540241  0.95013352
   0.64392757  0.74540241  0.95013352
BiTiFeO                                 
           1
    10.978895    0.001722    0.001645
     0.000865    5.481793   -0.001846
     0.006175    0.048481   40.707606
   Bi   Ti   O    Fe
  40  24 120   8
Direct configuration=     4
   0.12657719  0.24597931  0.10403644
   0.62657720  0.24597931  0.10403644
   0.11897525  0.27429314  0.21936504
   0.61897523  0.27429314  0.21936504
   0.12657719  0.74597931  0.60403645
   0.62657720  0.74597931  0.60403645
   0.11897525  0.77429317  0.71936500
   0.61897523  0.77429317  0.71936500
   0.37455946  0.75266384  0.89602488
   0.87455943  0.75266384  0.89602488
   0.36877846  0.72613961  0.78066747
   0.86877846  0.72613961  0.78066747
   0.37455946  0.25266384  0.39602491
   0.87455943  0.25266384  0.39602491
   0.36877846  0.22613962  0.28066741
   0.86877846  0.22613962  0.28066741
   0.37365910  0.75246899  0.10427992
   0.87365910  0.75246899  0.10427992
   0.36765337  0.72783932  0.21922393
   0.86765337  0.72783932  0.21922393
   0.37365910  0.25246901  0.60427994
   0.87365910  0.25246901  0.60427994
   0.36765337  0.22783931  0.71922396
   0.86765337  0.22783931  0.71922396
   0.12550367  0.24556377  0.89575726
   0.62550366  0.24556377  0.89575726
   0.11775122  0.27268667  0.78077368
   0.61775122  0.27268667  0.78077368
   0.12550367  0.74556380  0.39575729
   0.62550366  0.74556380  0.39575729
   0.11775122  0.77268664  0.28077371
   0.61775122  0.77268664  0.28077371
   0.12339029  0.24253504  0.00097492
   0.62339032  0.24253504  0.00097492
   0.12339029  0.74253504  0.50097492
   0.62339032  0.74253504  0.50097492
   0.37047788  0.76065204  0.99895136
   0.87047791  0.76065204  0.99895136
   0.37047788  0.26065204  0.49895130
   0.87047791  0.26065204  0.49895130
   0.14742012  0.25018821  0.34711289
   0.64742011  0.25018821  0.34711289
   0.14742012  0.75018821  0.84711292
   0.64742011  0.75018821  0.84711292
   0.39780330  0.75032479  0.34718563
   0.89780330  0.75032479  0.34718563
   0.39780330  0.25032479  0.84718563
   0.89780330  0.25032479  0.84718563
   0.39788589  0.74990188  0.65318252
   0.89788589  0.74990188  0.65318252
   0.39788589  0.24990190  0.15318254
   0.89788589  0.24990190  0.15318254
   0.39682756  0.75239686  0.45029278
   0.89682759  0.75239686  0.45029278
   0.39682756  0.25239686  0.95029275
   0.89682759  0.25239686  0.95029275
   0.14729104  0.25001729  0.65254334
   0.64729102  0.25001729  0.65254334
   0.14729104  0.75001729  0.15254334
   0.64729102  0.75001729  0.15254334
   0.39559898  0.75426849  0.54972783
   0.89559901  0.75426849  0.54972783
   0.39559898  0.25426849  0.04972782
   0.89559901  0.25426849  0.04972782
   0.30285009  0.55380541  0.05588744
   0.80285012  0.55380541  0.05588744
   0.16184839  0.32238064  0.40248503
   0.66184836  0.32238064  0.40248503
   0.26374374  0.47230493  0.13803135
   0.76374377  0.47230493  0.13803135
   0.14596073  0.18674156  0.30373727
   0.64596076  0.18674156  0.30373727
   0.25128883  0.49516113  0.25137899
   0.75128886  0.49516113  0.25137899
   0.00390071  0.96112372  0.03866331
   0.50390071  0.96112372  0.03866331
   0.05215885  0.05344154  0.15094208
   0.55215883  0.05344154  0.15094208
   0.30285009  0.05380542  0.55588741
   0.80285012  0.05380542  0.55588741
   0.16184839  0.82238064  0.90248503
   0.66184836  0.82238064  0.90248503
   0.26374374  0.97230496  0.63803133
   0.76374377  0.97230496  0.63803133
   0.14596073  0.68674153  0.80373727
   0.64596076  0.68674153  0.80373727
   0.25128883  0.99516116  0.75137902
   0.75128886  0.99516116  0.75137902
   0.00390071  0.46112375  0.53866330
   0.50390071  0.46112375  0.53866330
   0.05215885  0.55344159  0.65094211
   0.55215883  0.55344159  0.65094211
   0.05155785  0.44165328  0.94427837
   0.55155787  0.44165328  0.94427837
   0.41026036  0.67898952  0.59729701
   0.91026033  0.67898952  0.59729701
   0.01322696  0.52673319  0.86184294
   0.51322694  0.52673319  0.86184294
   0.39585608  0.81330403  0.69652956
   0.89585608  0.81330403  0.69652956
   0.00127731  0.50470535  0.74861229
   0.50127733  0.50470535  0.74861229
   0.25608359  0.04331094  0.96127296
   0.75608359  0.04331094  0.96127296
   0.30257325  0.94719199  0.84898185
   0.80257322  0.94719199  0.84898185
   0.05155785  0.94165331  0.44427834
   0.55155787  0.94165331  0.44427834
   0.41026036  0.17898952  0.09729703
   0.91026033  0.17898952  0.09729703
   0.01322696  0.02673322  0.36184294
   0.51322694  0.02673322  0.36184294
   0.39585608  0.31330403  0.19652956
   0.89585608  0.31330403  0.19652956
   0.00127731  0.00470538  0.24861230
   0.50127733  0.00470538  0.24861230
   0.25608359  0.54331096  0.46127293
   0.75608359  0.54331096  0.46127293
   0.30257325  0.44719205  0.34898188
   0.80257322  0.44719205  0.34898188
   0.05411446  0.43683340  0.05431010
   0.55411445  0.43683340  0.05431010
   0.41158352  0.67853289  0.40221881
   0.91158355  0.67853289  0.40221881
   0.01338220  0.52441270  0.13824143
   0.51338218  0.52441270  0.13824143
   0.39701417  0.81418900  0.30360393
   0.89701414  0.81418900  0.30360393
   0.00120909  0.50484350  0.25128983
   0.50120908  0.50484350  0.25128983
   0.25412186  0.04783342  0.03976990
   0.75412186  0.04783342  0.03976990
   0.30339823  0.94523168  0.15158924
   0.80339823  0.94523168  0.15158924
   0.05411446  0.93683337  0.55431014
   0.55411445  0.93683337  0.55431014
   0.41158352  0.17853290  0.90221884
   0.91158355  0.17853290  0.90221884
   0.01338220  0.02441267  0.63824140
   0.51338218  0.02441267  0.63824140
   0.39701417  0.31418903  0.80360390
   0.89701414  0.31418903  0.80360390
   0.00120909  0.00484351  0.75128983
   0.50120908  0.00484351  0.75128983
   0.25412186  0.54783343  0.53976988
   0.75412186  0.54783343  0.53976988
   0.30339823  0.44523168  0.65158927
   0.80339823  0.44523168  0.65158927
   0.30499682  0.55895052  0.94552707
   0.80499682  0.55895052  0.94552707
   0.16349986  0.32300118  0.59813435
   0.66349985  0.32300118  0.59813435
   0.26388170  0.47479138  0.86183224
   0.76388170  0.47479138  0.86183224
   0.14716895  0.18581441  0.69616731
   0.64716896  0.18581441  0.69616731
   0.25124049  0.49510817  0.74870993
   0.75124046  0.49510817  0.74870993
   0.00221971  0.95630510  0.96029068
   0.50221970  0.95630510  0.96029068
   0.05301898  0.05539108  0.84850569
   0.55301897  0.05539108  0.84850569
   0.30499682  0.05895048  0.44552713
   0.80499682  0.05895048  0.44552713
   0.16349986  0.82300118  0.09813436
   0.66349985  0.82300118  0.09813436
   0.26388170  0.97479135  0.36183221
   0.76388170  0.97479135  0.36183221
   0.14716895  0.68581441  0.19616726
   0.64716896  0.68581441  0.19616726
   0.25124049  0.99510817  0.24870990
   0.75124046  0.99510817  0.24870990
   0.00221971  0.45630513  0.46029068
   0.50221970  0.45630513  0.46029068
   0.05301898  0.55539110  0.34850575
   0.55301897  0.55539110  0.34850575
   0.15998268  0.15933840  0.49993656
   0.65998266  0.15933840  0.49993656
   0.15998268  0.65933846  0.99993659
   0.65998266  0.65933846  0.99993659
   0.40881793  0.83832662  0.50003392
   0.90881790  0.83832662  0.50003392
   0.40881793  0.33832668  0.00003392
   0.90881790  0.33832668  0.00003392
   0.14419207  0.24695971  0.54955936
   0.64419210  0.24695971  0.54955936
   0.14419207  0.74695970  0.04955935
   0.64419210  0.74695970  0.04955935