BiTiFeO                                 
           1
    10.959496   -0.000418   -0.001830
    -0.000213    5.475288    0.000887
    -0.006782    0.068784   40.576984
   Bi   Ti   O    Fe
  40  24 120   8
Direct configuration=     1
   0.12581734  0.24552768  0.10456018
   0.62581736  0.24552768  0.10456018
   0.11884221  0.27533320  0.21951799
   0.61884218  0.27533320  0.21951799
   0.12581734  0.74552768  0.60456020
   0.62581736  0.74552768  0.60456020
   0.11884221  0.77533323  0.71951795
   0.61884218  0.77533323  0.71951795
   0.37581733  0.75447232  0.89543980
   0.87581730  0.75447232  0.89543980
   0.36884218  0.72466677  0.78048205
   0.86884218  0.72466677  0.78048205
   0.37581733  0.25447232  0.39543983
   0.87581730  0.25447232  0.39543983
   0.36884218  0.22466679  0.28048199
   0.86884218  0.22466679  0.28048199
   0.37389028  0.75425547  0.10488448
   0.87389028  0.75425547  0.10488448
   0.36734301  0.72707325  0.21940872
   0.86734301  0.72707325  0.21940872
   0.37389028  0.25425550  0.60488451
   0.87389028  0.25425550  0.60488451
   0.36734301  0.22707324  0.71940875
   0.86734301  0.22707324  0.71940875
   0.12389029  0.24574450  0.89511549
   0.62389028  0.24574450  0.89511549
   0.11734302  0.27292678  0.78059125
   0.61734301  0.27292678  0.78059125
   0.12389029  0.74574453  0.39511553
   0.62389028  0.74574453  0.39511553
   0.11734302  0.77292675  0.28059128
   0.61734301  0.77292675  0.28059128
   0.12124083  0.24192810  0.00106251
   0.62124085  0.24192810  0.00106251
   0.12124083  0.74192810  0.50106251
   0.62124085  0.74192810  0.50106251
   0.37124082  0.75807190  0.99893749
   0.87124085  0.75807190  0.99893749
   0.37124082  0.25807190  0.49893743
   0.87124085  0.25807190  0.49893743
   0.39737403  0.74971396  0.34751427
   0.89737403  0.74971396  0.34751427
   0.39737403  0.24971396  0.84751427
   0.89737403  0.24971396  0.84751427
   0.39778417  0.74996662  0.65309596
   0.89778417  0.74996662  0.65309596
   0.39778417  0.24996664  0.15309598
   0.89778417  0.24996664  0.15309598
   0.39509413  0.75150693  0.45036468
   0.89509416  0.75150693  0.45036468
   0.39509413  0.25150693  0.95036465
   0.89509416  0.25150693  0.95036465
   0.14737405  0.25028604  0.65248573
   0.64737403  0.25028604  0.65248573
   0.14737405  0.75028604  0.15248573
   0.64737403  0.75028604  0.15248573
   0.14572605  0.24496144  0.45021892
   0.64572608  0.24496144  0.45021892
   0.14572605  0.74496144  0.95021892
   0.64572608  0.74496144  0.95021892
   0.39572605  0.75503856  0.54978108
   0.89572608  0.75503856  0.54978108
   0.39572605  0.25503856  0.04978108
   0.89572608  0.25503856  0.04978108
   0.30398616  0.55333757  0.05623510
   0.80398619  0.55333757  0.05623510
   0.16037145  0.32244712  0.40269166
   0.66037142  0.32244712  0.40269166
   0.26384732  0.47232899  0.13806446
   0.76384735  0.47232899  0.13806446
   0.14598581  0.18621907  0.30358261
   0.64598584  0.18621907  0.30358261
   0.25139269  0.49499974  0.25136027
   0.75139272  0.49499974  0.25136027
   0.00183105  0.96418035  0.03809405
   0.50183105  0.96418035  0.03809405
   0.05208983  0.05360783  0.15095773
   0.55208981  0.05360783  0.15095773
   0.30398616  0.05333758  0.55623508
   0.80398619  0.05333758  0.55623508
   0.16037145  0.82244712  0.90269166
   0.66037142  0.82244712  0.90269166
   0.26384732  0.97232902  0.63806444
   0.76384735  0.97232902  0.63806444
   0.14598581  0.68621904  0.80358261
   0.64598584  0.68621904  0.80358261
   0.25139269  0.99499977  0.75136030
   0.75139272  0.99499977  0.75136030
   0.00183105  0.46418038  0.53809404
   0.50183105  0.46418038  0.53809404
   0.05208983  0.55360788  0.65095776
   0.55208981  0.55360788  0.65095776
   0.05398618  0.44666240  0.94376492
   0.55398619  0.44666240  0.94376492
   0.41037145  0.67755288  0.59730834
   0.91037142  0.67755288  0.59730834
   0.01384731  0.52767098  0.86193556
   0.51384729  0.52767098  0.86193556
   0.39598584  0.81378096  0.69641739
   0.89598584  0.81378096  0.69641739
   0.00139270  0.50500023  0.74863970
   0.50139272  0.50500023  0.74863970
   0.25183105  0.03581963  0.96190596
   0.75183105  0.03581963  0.96190596
   0.30208984  0.94639212  0.84904224
   0.80208981  0.94639212  0.84904224
   0.05398618  0.94666243  0.44376490
   0.55398619  0.94666243  0.44376490
   0.41037145  0.17755288  0.09730835
   0.91037142  0.17755288  0.09730835
   0.01384731  0.02767100  0.36193556
   0.51384729  0.02767100  0.36193556
   0.39598584  0.31378096  0.19641739
   0.89598584  0.31378096  0.19641739
   0.00139270  0.00500026  0.24863972
   0.50139272  0.00500026  0.24863972
   0.25183105  0.53581965  0.46190593
   0.75183105  0.53581965  0.46190593
   0.30208984  0.44639218  0.34904227
   0.80208981  0.44639218  0.34904227
   0.05373246  0.42657372  0.05429961
   0.55373246  0.42657372  0.05429961
   0.41462371  0.67528647  0.40033671
   0.91462374  0.67528647  0.40033671
   0.01342812  0.52419931  0.13827106
   0.51342809  0.52419931  0.13827106
   0.39733556  0.81472349  0.30391791
   0.89733553  0.81472349  0.30391791
   0.00137807  0.50483209  0.25127208
   0.50137806  0.50483209  0.25127208
   0.25423092  0.05460011  0.03958693
   0.75423092  0.05460011  0.03958693
   0.30389983  0.94555801  0.15167758
   0.80389983  0.94555801  0.15167758
   0.05373246  0.92657369  0.55429965
   0.55373246  0.92657369  0.55429965
   0.41462371  0.17528649  0.90033674
   0.91462374  0.17528649  0.90033674
   0.01342812  0.02419928  0.63827103
   0.51342809  0.02419928  0.63827103
   0.39733556  0.31472352  0.80391788
   0.89733553  0.31472352  0.80391788
   0.00137807  0.00483209  0.75127208
   0.50137806  0.00483209  0.75127208
   0.25423092  0.55460012  0.53958690
   0.75423092  0.55460012  0.53958690
   0.30389983  0.44555801  0.65167761
   0.80389983  0.44555801  0.65167761
   0.30373246  0.57342631  0.94570035
   0.80373246  0.57342631  0.94570035
   0.16462369  0.32471353  0.59966326
   0.66462368  0.32471353  0.59966326
   0.26342809  0.47580072  0.86172897
   0.76342809  0.47580072  0.86172897
   0.14733557  0.18527651  0.69608212
   0.64733559  0.18527651  0.69608212
   0.25137809  0.49516791  0.74872792
   0.75137806  0.49516791  0.74872792
   0.00423092  0.94539988  0.96041310
   0.50423092  0.94539988  0.96041310
   0.05389983  0.05444197  0.84832239
   0.55389983  0.05444197  0.84832239
   0.30373246  0.07342626  0.44570041
   0.80373246  0.07342626  0.44570041
   0.16462369  0.82471353  0.09966327
   0.66462368  0.82471353  0.09966327
   0.26342809  0.97580069  0.36172894
   0.76342809  0.97580069  0.36172894
   0.14733557  0.68527651  0.19608207
   0.64733559  0.68527651  0.19608207
   0.25137809  0.99516791  0.24872789
   0.75137806  0.99516791  0.24872789
   0.00423092  0.44539991  0.46041310
   0.50423092  0.44539991  0.46041310
   0.05389983  0.55444199  0.34832245
   0.55389983  0.55444199  0.34832245
   0.15875485  0.15670252  0.49889919
   0.65875483  0.15670252  0.49889919
   0.15875485  0.65670258  0.99889922
   0.65875483  0.65670258  0.99889922
   0.40875485  0.84329742  0.50110078
   0.90875483  0.84329742  0.50110078
   0.40875485  0.34329748  0.00110078
   0.90875483  0.34329748  0.00110078
   0.14778419  0.25003338  0.34690401
   0.64778417  0.25003338  0.34690401
   0.14778419  0.75003338  0.84690404
   0.64778417  0.75003338  0.84690404
   0.14509413  0.24849309  0.54963535
   0.64509416  0.24849309  0.54963535
   0.14509413  0.74849307  0.04963534
   0.64509416  0.74849307  0.04963534
BiTiFeO                                 
           1
    11.009484   -0.001059    0.009425
    -0.000541    5.501673   -0.001353
     0.034911    0.052448   40.932985
   Bi   Ti   O    Fe
  40  24 120   8
Direct configuration=     2
   0.12623444  0.24464782  0.10451242
   0.62623445  0.24464782  0.10451242
   0.11885464  0.27512977  0.21971453
   0.61885462  0.27512977  0.21971453
   0.12623444  0.74464782  0.60451244
   0.62623445  0.74464782  0.60451244
   0.11885464  0.77512980  0.71971449
   0.61885462  0.77512980  0.71971449
   0.37572909  0.75157444  0.89289296
   0.87572906  0.75157444  0.89289296
   0.36811314  0.72468434  0.78101338
   0.86811314  0.72468434  0.78101338
   0.37572909  0.25157444  0.39289299
   0.87572906  0.25157444  0.39289299
   0.36811314  0.22468435  0.28101332
   0.86811314  0.22468435  0.28101332
   0.37301065  0.75409047  0.10478929
   0.87301065  0.75409047  0.10478929
   0.36736787  0.72710647  0.21960886
   0.86736787  0.72710647  0.21960886
   0.37301065  0.25409050  0.60478931
   0.87301065  0.25409050  0.60478931
   0.36736787  0.22710646  0.71960889
   0.86736787  0.22710646  0.71960889
   0.12575040  0.24737100  0.89262001
   0.62575040  0.24737100  0.89262001
   0.11745687  0.27469842  0.78113650
   0.61745686  0.27469842  0.78113650
   0.12575040  0.74737103  0.39262004
   0.62575040  0.74737103  0.39262004
   0.11745687  0.77469839  0.28113653
   0.61745686  0.77469839  0.28113653
   0.12231850  0.24143790  0.00299795
   0.62231852  0.24143790  0.00299795
   0.12231850  0.74143790  0.50299795
   0.62231852  0.74143790  0.50299795
   0.37116081  0.75938038  1.00085268
   0.87116084  0.75938038  1.00085268
   0.37116081  0.25938038  0.50085262
   0.87116084  0.25938038  0.50085262
   0.39791671  0.74917623  0.34652993
   0.89791671  0.74917623  0.34652993
   0.39791671  0.24917623  0.84652993
   0.89791671  0.24917623  0.84652993
   0.39780566  0.75011762  0.65326892
   0.89780566  0.75011762  0.65326892
   0.39780566  0.25011764  0.15326894
   0.89780566  0.25011764  0.15326894
   0.39554433  0.75375186  0.44966006
   0.89554436  0.75375186  0.44966006
   0.39554433  0.25375186  0.94966003
   0.89554436  0.25375186  0.94966003
   0.14737961  0.25032703  0.65246747
   0.64737960  0.25032703  0.65246747
   0.14737961  0.75032703  0.15246747
   0.64737960  0.75032703  0.15246747
   0.14506440  0.24485369  0.44960164
   0.64506443  0.24485369  0.44960164
   0.14506440  0.74485369  0.94960164
   0.64506443  0.74485369  0.94960164
   0.39610729  0.75429473  0.55104103
   0.89610732  0.75429473  0.55104103
   0.39610729  0.25429473  0.05104102
   0.89610732  0.25429473  0.05104102
   0.30361208  0.55407028  0.05572477
   0.80361211  0.55407028  0.05572477
   0.16019833  0.32081904  0.40406295
   0.66019830  0.32081904  0.40406295
   0.26399859  0.47190176  0.13802812
   0.76399862  0.47190176  0.13802812
   0.14641396  0.18523085  0.30347469
   0.64641399  0.18523085  0.30347469
   0.25147401  0.49508214  0.25119879
   0.75147404  0.49508214  0.25119879
   0.00185647  0.96278058  0.03748548
   0.50185647  0.96278058  0.03748548
   0.05197614  0.05408499  0.15091462
   0.55197612  0.05408499  0.15091462
   0.30361208  0.05407029  0.55572475
   0.80361211  0.05407029  0.55572475
   0.16019833  0.82081904  0.90406295
   0.66019830  0.82081904  0.90406295
   0.26399859  0.97190179  0.63802810
   0.76399862  0.97190179  0.63802810
   0.14641396  0.68523082  0.80347469
   0.64641399  0.68523082  0.80347469
   0.25147401  0.99508217  0.75119882
   0.75147404  0.99508217  0.75119882
   0.00185647  0.46278061  0.53748547
   0.50185647  0.46278061  0.53748547
   0.05197614  0.55408504  0.65091465
   0.55197612  0.55408504  0.65091465
   0.04903708  0.44189161  0.94438202
   0.54903709  0.44189161  0.94438202
   0.41024701  0.67808911  0.59702147
   0.91024698  0.67808911  0.59702147
   0.01335691  0.52743228  0.86272870
   0.51335690  0.52743228  0.86272870
   0.39592789  0.81366182  0.69631005
   0.89592789  0.81366182  0.69631005
   0.00142409  0.50472549  0.74845556
   0.50142412  0.50472549  0.74845556
   0.25675264  0.04346357  0.96134427
   0.75675264  0.04346357  0.96134427
   0.30318435  0.94589614  0.84978516
   0.80318432  0.94589614  0.84978516
   0.04903708  0.94189164  0.44438199
   0.54903709  0.94189164  0.44438199
   0.41024701  0.17808911  0.09702148
   0.91024698  0.17808911  0.09702148
   0.01335691  0.02743231  0.36272870
   0.51335690  0.02743231  0.36272870
   0.39592789  0.31366182  0.19631005
   0.89592789  0.31366182  0.19631005
   0.00142409  0.00472552  0.24845558
   0.50142412  0.00472552  0.24845558
   0.25675264  0.54346359  0.46134424
   0.75675264  0.54346359  0.46134424
   0.30318435  0.44589620  0.34978519
   0.80318432  0.44589620  0.34978519
   0.05439999  0.43002670  0.05376390
   0.55439999  0.43002670  0.05376390
   0.41255204  0.67939146  0.40331644
   0.91255207  0.67939146  0.40331644
   0.01322816  0.52398738  0.13825820
   0.51322813  0.52398738  0.13825820
   0.39725062  0.81463062  0.30387558
   0.89725059  0.81463062  0.30387558
   0.00113845  0.50484678  0.25107012
   0.50113844  0.50484678  0.25107012
   0.25260727  0.05162456  0.03891819
   0.75260727  0.05162456  0.03891819
   0.30413469  0.94553863  0.15164418
   0.80413469  0.94553863  0.15164418
   0.05439999  0.93002667  0.55376394
   0.55439999  0.93002667  0.55376394
   0.41255204  0.17939147  0.90331646
   0.91255207  0.17939147  0.90331646
   0.01322816  0.02398736  0.63825817
   0.51322813  0.02398736  0.63825817
   0.39725062  0.31463065  0.80387555
   0.89725059  0.31463065  0.80387555
   0.00113845  0.00484679  0.75107012
   0.50113844  0.00484679  0.75107012
   0.25260727  0.55162457  0.53891816
   0.75260727  0.55162457  0.53891816
   0.30413469  0.44553863  0.65164421
   0.80413469  0.44553863  0.65164421
   0.30690177  0.55764667  0.94602454
   0.80690177  0.55764667  0.94602454
   0.16459351  0.32502843  0.59915167
   0.66459350  0.32502843  0.59915167
   0.26354968  0.47485401  0.86255507
   0.76354968  0.47485401  0.86255507
   0.14732552  0.18551272  0.69599784
   0.64732554  0.18551272  0.69599784
   0.25129870  0.49514834  0.74857526
   0.75129867  0.49514834  0.74857526
   0.00076998  0.95607662  0.96009530
   0.50076998  0.95607662  0.96009530
   0.05415554  0.05713655  0.84914360
   0.55415554  0.05713655  0.84914360
   0.30690177  0.05764663  0.44602460
   0.80690177  0.05764663  0.44602460
   0.16459351  0.82502843  0.09915169
   0.66459350  0.82502843  0.09915169
   0.26354968  0.97485398  0.36255504
   0.76354968  0.97485398  0.36255504
   0.14732552  0.68551272  0.19599780
   0.64732554  0.68551272  0.19599780
   0.25129870  0.99514834  0.24857523
   0.75129867  0.99514834  0.24857523
   0.00076998  0.45607665  0.46009530
   0.50076998  0.45607665  0.46009530
   0.05415554  0.55713657  0.34914366
   0.55415554  0.55713657  0.34914366
   0.15929406  0.15819106  0.49851176
   0.65929403  0.15819106  0.49851176
   0.15929406  0.65819112  0.99851179
   0.65929403  0.65819112  0.99851179
   0.40844774  0.84061511  0.49894125
   0.90844771  0.84061511  0.49894125
   0.40844774  0.34061517 -0.00105875
   0.90844771  0.34061517 -0.00105875
   0.14733742  0.24977533  0.34627258
   0.64733741  0.24977533  0.34627258
   0.14733742  0.74977533  0.84627260
   0.64733741  0.74977533  0.84627260
   0.14574074  0.24819700  0.55026014
   0.64574077  0.24819700  0.55026014
   0.14574074  0.74819699  0.05026013
   0.64574077  0.74819699  0.05026013
BiTiFeO                                 
           1
    10.982421   -0.001682    0.019154
    -0.000873    5.485568   -0.000685
     0.071051    0.057239   40.857810
   Bi   Ti   O    Fe
  40  24 120   8
Direct configuration=     3
   0.12676403  0.24491496  0.10448833
   0.62676404  0.24491496  0.10448833
   0.11900353  0.27455294  0.21964725
   0.61900351  0.27455294  0.21964725
   0.12676403  0.74491496  0.60448835
   0.62676404  0.74491496  0.60448835
   0.11900353  0.77455297  0.71964721
   0.61900351  0.77455297  0.71964721
   0.37623428  0.75106977  0.89336101
   0.87623425  0.75106977  0.89336101
   0.36780905  0.72557258  0.78109830
   0.86780905  0.72557258  0.78109830
   0.37623428  0.25106977  0.39336104
   0.87623425  0.25106977  0.39336104
   0.36780905  0.22557259  0.28109824
   0.86780905  0.22557259  0.28109824
   0.37316527  0.75336909  0.10473369
   0.87316527  0.75336909  0.10473369
   0.36770055  0.72779694  0.21949459
   0.86770055  0.72779694  0.21949459
   0.37316527  0.25336912  0.60473371
   0.87316527  0.25336912  0.60473371
   0.36770055  0.22779692  0.71949462
   0.86770055  0.22779692  0.71949462
   0.12627637  0.24794790  0.89309411
   0.62627636  0.24794790  0.89309411
   0.11776858  0.27522666  0.78124307
   0.61776857  0.27522666  0.78124307
   0.12627637  0.74794792  0.39309414
   0.62627636  0.74794792  0.39309414
   0.11776858  0.77522663  0.28124310
   0.61776857  0.77522663  0.28124310
   0.12233286  0.24197431  0.00257332
   0.62233289  0.24197431  0.00257332
   0.12233286  0.74197431  0.50257332
   0.62233289  0.74197431  0.50257332
   0.37105657  0.75924269  1.00056716
   0.87105660  0.75924269  1.00056716
   0.37105657  0.25924269  0.50056710
   0.87105660  0.25924269  0.50056710
   0.39794160  0.74897429  0.34730140
   0.89794160  0.74897429  0.34730140
   0.39794160  0.24897429  0.84730140
   0.89794160  0.24897429  0.84730140
   0.39792010  0.75002160  0.65318798
   0.89792010  0.75002160  0.65318798
   0.39792010  0.25002162  0.15318799
   0.89792010  0.25002162  0.15318799
   0.39592423  0.75311269  0.44978472
   0.89592426  0.75311269  0.44978472
   0.39592423  0.25311269  0.94978469
   0.89592426  0.25311269  0.94978469
   0.14725512  0.25034956  0.65241708
   0.64725511  0.25034956  0.65241708
   0.14725512  0.75034956  0.15241708
   0.64725511  0.75034956  0.15241708
   0.14461939  0.24446737  0.44994100
   0.64461942  0.24446737  0.44994100
   0.14461939  0.74446737  0.94994100
   0.64461942  0.74446737  0.94994100
   0.39577089  0.75428366  0.55030426
   0.89577092  0.75428366  0.55030426
   0.39577089  0.25428366  0.05030426
   0.89577092  0.25428366  0.05030426
   0.30337817  0.55414590  0.05568562
   0.80337820  0.55414590  0.05568562
   0.16014305  0.32058101  0.40380079
   0.66014302  0.32058101  0.40380079
   0.26389278  0.47181637  0.13797246
   0.76389281  0.47181637  0.13797246
   0.14655431  0.18442061  0.30307260
   0.64655434  0.18442061  0.30307260
   0.25150593  0.49497473  0.25128160
   0.75150596  0.49497473  0.25128160
   0.00217270  0.96262369  0.03774594
   0.50217270  0.96262369  0.03774594
   0.05202273  0.05413126  0.15089488
   0.55202271  0.05413126  0.15089488
   0.30337817  0.05414591  0.55568560
   0.80337820  0.05414591  0.55568560
   0.16014305  0.82058101  0.90380079
   0.66014302  0.82058101  0.90380079
   0.26389278  0.97181640  0.63797245
   0.76389281  0.97181640  0.63797245
   0.14655431  0.68442058  0.80307260
   0.64655434  0.68442058  0.80307260
   0.25150593  0.99497476  0.75128163
   0.75150596  0.99497476  0.75128163
   0.00217270  0.46262372  0.53774594
   0.50217270  0.46262372  0.53774594
   0.05202273  0.55413131  0.65089491
   0.55202271  0.55413131  0.65089491
   0.05029929  0.44408209  0.94440274
   0.55029930  0.44408209  0.94440274
   0.41013590  0.67821213  0.59727785
   0.91013587  0.67821213  0.59727785
   0.01333229  0.52714666  0.86252193
   0.51333228  0.52714666  0.86252193
   0.39579114  0.81361353  0.69654567
   0.89579114  0.81361353  0.69654567
   0.00126481  0.50439826  0.74848501
   0.50126484  0.50439826  0.74848501
   0.25591246  0.04192701  0.96136618
   0.75591246  0.04192701  0.96136618
   0.30281536  0.94695184  0.84958228
   0.80281533  0.94695184  0.84958228
   0.05029929  0.94408212  0.44440271
   0.55029930  0.94408212  0.44440271
   0.41013590  0.17821213  0.09727787
   0.91013587  0.17821213  0.09727787
   0.01333229  0.02714669  0.36252193
   0.51333228  0.02714669  0.36252193
   0.39579114  0.31361353  0.19654567
   0.89579114  0.31361353  0.19654567
   0.00126481  0.00439829  0.24848503
   0.50126484  0.00439829  0.24848503
   0.25591246  0.54192704  0.46136615
   0.75591246  0.54192704  0.46136615
   0.30281536  0.44695190  0.34958231
   0.80281533  0.44695190  0.34958231
   0.05428162  0.43126856  0.05379147
   0.55428161  0.43126856  0.05379147
   0.41188385  0.67927153  0.40300660
   0.91188388  0.67927153  0.40300660
   0.01315566  0.52405685  0.13821656
   0.51315563  0.52405685  0.13821656
   0.39706531  0.81497821  0.30320394
   0.89706528  0.81497821  0.30320394
   0.00098616  0.50500377  0.25113210
   0.50098615  0.50500377  0.25113210
   0.25312576  0.05027209  0.03918282
   0.75312576  0.05027209  0.03918282
   0.30403358  0.94533510  0.15162865
   0.80403358  0.94533510  0.15162865
   0.05428162  0.93126853  0.55379151
   0.55428161  0.93126853  0.55379151
   0.41188385  0.17927154  0.90300663
   0.91188388  0.17927154  0.90300663
   0.01315566  0.02405682  0.63821653
   0.51315563  0.02405682  0.63821653
   0.39706531  0.31497824  0.80320391
   0.89706528  0.31497824  0.80320391
   0.00098616  0.00500378  0.75113210
   0.50098615  0.00500378  0.75113210
   0.25312576  0.55027209  0.53918279
   0.75312576  0.55027209  0.53918279
   0.30403358  0.44533510  0.65162868
   0.80403358  0.44533510  0.65162868
   0.30549162  0.55880336  0.94588451
   0.80549162  0.55880336  0.94588451
   0.16452096  0.32490816  0.59905568
   0.66452095  0.32490816  0.59905568
   0.26391670  0.47461661  0.86234318
   0.76391670  0.47461661  0.86234318
   0.14721940  0.18565511  0.69611972
   0.64721941  0.18565511  0.69611972
   0.25131581  0.49511012  0.74860176
   0.75131578  0.49511012  0.74860176
   0.00174471  0.95478790  0.96022187
   0.50174471  0.95478790  0.96022187
   0.05369855  0.05658514  0.84899963
   0.55369855  0.05658514  0.84899963
   0.30549162  0.05880332  0.44588457
   0.80549162  0.05880332  0.44588457
   0.16452096  0.82490816  0.09905570
   0.66452095  0.82490816  0.09905570
   0.26391670  0.97461658  0.36234315
   0.76391670  0.97461658  0.36234315
   0.14721940  0.68565511  0.19611968
   0.64721941  0.68565511  0.19611968
   0.25131581  0.99511012  0.24860173
   0.75131578  0.99511012  0.24860173
   0.00174471  0.45478793  0.46022187
   0.50174471  0.45478793  0.46022187
   0.05369855  0.55658516  0.34899969
   0.55369855  0.55658516  0.34899969
   0.15945326  0.15926342  0.49873361
   0.65945323  0.15926342  0.49873361
   0.15945326  0.65926348  0.99873364
   0.65945323  0.65926348  0.99873364
   0.40860849  0.83981782  0.49944468
   0.90860846  0.83981782  0.49944468
   0.40860849  0.33981788 -0.00055532
   0.90860846  0.33981788 -0.00055532
   0.14704678  0.24961997  0.34644826
   0.64704676  0.24961997  0.34644826
   0.14704678  0.74961997  0.84644829
   0.64704676  0.74961997  0.84644829
   0.14568829  0.24874401  0.55011204
   0.64568832  0.24874401  0.55011204
   0.14568829  0.74874399  0.05011203
   0.64568832  0.74874399  0.05011203
BiTiFeO                                 
           1
    10.979871   -0.002132    0.017521
    -0.001108    5.483574    0.000538
     0.064873    0.066319   40.894468
   Bi   Ti   O    Fe
  40  24 120   8
Direct configuration=     4
   0.12694013  0.24488481  0.10452218
   0.62694014  0.24488481  0.10452218
   0.11901419  0.27430904  0.21985561
   0.61901416  0.27430904  0.21985561
   0.12694013  0.74488481  0.60452219
   0.62694014  0.74488481  0.60452219
   0.11901419  0.77430907  0.71985557
   0.61901416  0.77430907  0.71985557
   0.37616208  0.75047971  0.89360189
   0.87616205  0.75047971  0.89360189
   0.36717742  0.72582744  0.78105446
   0.86717742  0.72582744  0.78105446
   0.37616208  0.25047971  0.39360192
   0.87616205  0.25047971  0.39360192
   0.36717742  0.22582745  0.28105440
   0.86717742  0.22582745  0.28105440
   0.37297559  0.75286147  0.10473170
   0.87297559  0.75286147  0.10473170
   0.36806289  0.72807643  0.21967037
   0.86806289  0.72807643  0.21967037
   0.37297559  0.25286150  0.60473172
   0.87297559  0.25286150  0.60473172
   0.36806289  0.22807642  0.71967040
   0.86806289  0.22807642  0.71967040
   0.12686498  0.24828884  0.89331537
   0.62686498  0.24828884  0.89331537
   0.11764453  0.27681929  0.78119698
   0.61764453  0.27681929  0.78119698
   0.12686498  0.74828887  0.39331540
   0.62686498  0.74828887  0.39331540
   0.11764453  0.77681926  0.28119701
   0.61764453  0.77681926  0.28119701
   0.12258202  0.24266236  0.00229851
   0.62258205  0.24266236  0.00229851
   0.12258202  0.74266236  0.50229851
   0.62258205  0.74266236  0.50229851
   0.37073360  0.75921065  1.00039475
   0.87073363  0.75921065  1.00039475
   0.37073360  0.25921065  0.50039469
   0.87073363  0.25921065  0.50039469
   0.39809288  0.74998387  0.34686494
   0.89809288  0.74998387  0.34686494
   0.39809288  0.24998387  0.84686494
   0.89809288  0.24998387  0.84686494
   0.39803460  0.75034641  0.65349509
   0.89803460  0.75034641  0.65349509
   0.39803460  0.25034643  0.15349510
   0.89803460  0.25034643  0.15349510
   0.39611593  0.75274094  0.44983626
   0.89611596  0.75274094  0.44983626
   0.39611593  0.25274094  0.94983623
   0.89611596  0.25274094  0.94983623
   0.14712916  0.24991033  0.65272153
   0.64712914  0.24991033  0.65272153
   0.14712916  0.74991033  0.15272153
   0.64712914  0.74991033  0.15272153
   0.14461283  0.24472378  0.45012208
   0.64461286  0.24472378  0.45012208
   0.14461283  0.74472378  0.95012208
   0.64461286  0.74472378  0.95012208
   0.39582083  0.75406446  0.54986377
   0.89582086  0.75406446  0.54986377
   0.39582083  0.25406446  0.04986376
   0.89582086  0.25406446  0.04986376
   0.30322276  0.55375714  0.05550542
   0.80322279  0.55375714  0.05550542
   0.16005172  0.32009817  0.40383748
   0.66005169  0.32009817  0.40383748
   0.26374971  0.47165643  0.13786823
   0.76374974  0.47165643  0.13786823
   0.14695243  0.18355279  0.30296107
   0.64695246  0.18355279  0.30296107
   0.25153747  0.49493070  0.25129380
   0.75153750  0.49493070  0.25129380
   0.00246489  0.96274646  0.03797862
   0.50246489  0.96274646  0.03797862
   0.05221972  0.05427107  0.15076486
   0.55221970  0.05427107  0.15076486
   0.30322276  0.05375715  0.55550539
   0.80322279  0.05375715  0.55550539
   0.16005172  0.82009817  0.90383748
   0.66005169  0.82009817  0.90383748
   0.26374971  0.97165646  0.63786821
   0.76374974  0.97165646  0.63786821
   0.14695243  0.68355276  0.80296107
   0.64695246  0.68355276  0.80296107
   0.25153747  0.99493073  0.75129383
   0.75153750  0.99493073  0.75129383
   0.00246489  0.46274649  0.53797861
   0.50246489  0.46274649  0.53797861
   0.05221972  0.55427112  0.65076489
   0.55221970  0.55427112  0.65076489
   0.05109282  0.44597966  0.94453154
   0.55109283  0.44597966  0.94453154
   0.41003326  0.67868615  0.59716706
   0.91003323  0.67868615  0.59716706
   0.01331504  0.52641296  0.86239319
   0.51331503  0.52641296  0.86239319
   0.39566612  0.81298699  0.69632402
   0.89566612  0.81298699  0.69632402
   0.00127344  0.50411409  0.74852896
   0.50127346  0.50411409  0.74852896
   0.25560517  0.04076172  0.96135285
   0.75560517  0.04076172  0.96135285
   0.30263065  0.94804224  0.84960596
   0.80263062  0.94804224  0.84960596
   0.05109282  0.94597969  0.44453151
   0.55109283  0.94597969  0.44453151
   0.41003326  0.17868615  0.09716707
   0.91003323  0.17868615  0.09716707
   0.01331504  0.02641298  0.36239319
   0.51331503  0.02641298  0.36239319
   0.39566612  0.31298699  0.19632402
   0.89566612  0.31298699  0.19632402
   0.00127344  0.00411412  0.24852897
   0.50127346  0.00411412  0.24852897
   0.25560517  0.54076175  0.46135282
   0.75560517  0.54076175  0.46135282
   0.30263065  0.44804230  0.34960599
   0.80263062  0.44804230  0.34960599
   0.05389551  0.43283450  0.05372676
   0.55389550  0.43283450  0.05372676
   0.41084474  0.67984100  0.40301577
   0.91084477  0.67984100  0.40301577
   0.01314865  0.52431729  0.13813298
   0.51314862  0.52431729  0.13813298
   0.39698126  0.81382300  0.30360706
   0.89698123  0.81382300  0.30360706
   0.00097879  0.50525726  0.25114096
   0.50097878  0.50525726  0.25114096
   0.25372414  0.04865936  0.03938655
   0.75372414  0.04865936  0.03938655
   0.30394403  0.94500276  0.15149688
   0.80394403  0.94500276  0.15149688
   0.05389551  0.93283447  0.55372681
   0.55389550  0.93283447  0.55372681
   0.41084474  0.17984102  0.90301580
   0.91084477  0.17984102  0.90301580
   0.01314865  0.02431726  0.63813295
   0.51314862  0.02431726  0.63813295
   0.39698126  0.31382303  0.80360703
   0.89698123  0.31382303  0.80360703
   0.00097879  0.00525726  0.75114096
   0.50097878  0.00525726  0.75114096
   0.25372414  0.54865937  0.53938653
   0.75372414  0.54865937  0.53938653
   0.30394403  0.44500276  0.65149691
   0.80394403  0.44500276  0.65149691
   0.30413147  0.55780587  0.94575676
   0.80413147  0.55780587  0.94575676
   0.16461791  0.32498400  0.59887929
   0.66461789  0.32498400  0.59887929
   0.26442027  0.47427720  0.86222450
   0.76442027  0.47427720  0.86222450
   0.14710584  0.18635951  0.69581328
   0.64710586  0.18635951  0.69581328
   0.25138632  0.49519891  0.74863387
   0.75138629  0.49519891  0.74863387
   0.00275613  0.95448893  0.96037952
   0.50275613  0.95448893  0.96037952
   0.05319204  0.05654166  0.84911902
   0.55319204  0.05654166  0.84911902
   0.30413147  0.05780582  0.44575682
   0.80413147  0.05780582  0.44575682
   0.16461791  0.82498400  0.09887931
   0.66461789  0.82498400  0.09887931
   0.26442027  0.97427717  0.36222447
   0.76442027  0.97427717  0.36222447
   0.14710584  0.68635951  0.19581323
   0.64710586  0.68635951  0.19581323
   0.25138632  0.99519891  0.24863384
   0.75138629  0.99519891  0.24863384
   0.00275613  0.45448896  0.46037952
   0.50275613  0.45448896  0.46037952
   0.05319204  0.55654168  0.34911908
   0.55319204  0.55654168  0.34911908
   0.15982077  0.16078064  0.49891290
   0.65982074  0.16078064  0.49891290
   0.15982077  0.66078070  0.99891293
   0.65982074  0.66078070  0.99891293
   0.40886656  0.83834881  0.49987415
   0.90886653  0.83834881  0.49987415
   0.40886656  0.33834887 -0.00012585
   0.90886653  0.33834887 -0.00012585
   0.14671865  0.24910426  0.34622103
   0.64671864  0.24910426  0.34622103
   0.14671865  0.74910426  0.84622106
   0.64671864  0.74910426  0.84622106