BiTiFeO                                 
           1
     5.480637    0.001233    0.005134
     0.001236    5.474011   -0.001235
     0.038276    0.052969   40.486822
   Bi   Ti   O    Fe
  20  12  60   4
Direct configuration=     1
   0.25163469  0.24552768  0.10456018
   0.23768441  0.27533320  0.21951799
   0.25163469  0.74552768  0.60456020
   0.23768441  0.77533323  0.71951795
   0.75163466  0.75447232  0.89543980
   0.73768437  0.72466677  0.78048205
   0.75163466  0.25447232  0.39543983
   0.73768437  0.22466679  0.28048199
   0.74778056  0.75425547  0.10488448
   0.73468602  0.72707325  0.21940872
   0.74778056  0.25425550  0.60488451
   0.73468602  0.22707324  0.71940875
   0.24778058  0.24574450  0.89511549
   0.23468603  0.27292678  0.78059125
   0.24778058  0.74574453  0.39511553
   0.23468603  0.77292675  0.28059128
   0.24248166  0.24192810  0.00106251
   0.24248166  0.74192810  0.50106251
   0.74248165  0.75807190  0.99893749
   0.74248165  0.25807190  0.49893743
   0.79474807  0.74971396  0.34751427
   0.79474807  0.24971396  0.84751427
   0.79556835  0.74996662  0.65309596
   0.79556835  0.24996664  0.15309598
   0.79018825  0.75150693  0.45036468
   0.79018825  0.25150693  0.95036465
   0.29018825  0.24849309  0.54963535
   0.29474810  0.25028604  0.65248573
   0.29474810  0.75028604  0.15248573
   0.29018825  0.74849307  0.04963534
   0.79145211  0.75503856  0.54978108
   0.79145211  0.25503856  0.04978108
   0.60797232  0.55333757  0.05623510
   0.32074291  0.32244712  0.40269166
   0.52769464  0.47232899  0.13806446
   0.29197162  0.18621907  0.30358261
   0.50278539  0.49499974  0.25136027
   0.00366211  0.96418035  0.03809405
   0.10417966  0.05360783  0.15095773
   0.60797232  0.05333758  0.55623508
   0.32074291  0.82244712  0.90269166
   0.52769464  0.97232902  0.63806444
   0.29197162  0.68621904  0.80358261
   0.50278539  0.99499977  0.75136030
   0.00366211  0.46418038  0.53809404
   0.10417966  0.55360788  0.65095776
   0.10797235  0.44666240  0.94376492
   0.82074291  0.67755288  0.59730834
   0.02769462  0.52767098  0.86193556
   0.79197168  0.81378096  0.69641739
   0.00278540  0.50500023  0.74863970
   0.50366211  0.03581963  0.96190596
   0.60417968  0.94639212  0.84904224
   0.10797235  0.94666243  0.44376490
   0.82074291  0.17755288  0.09730835
   0.02769462  0.02767100  0.36193556
   0.79197168  0.31378096  0.19641739
   0.00278540  0.00500026  0.24863972
   0.50366211  0.53581965  0.46190593
   0.60417968  0.44639218  0.34904227
   0.10746492  0.42657372  0.05429961
   0.82924741  0.67528647  0.40033671
   0.02685624  0.52419931  0.13827106
   0.79467112  0.81472349  0.30391791
   0.00275614  0.50483209  0.25127208
   0.50846183  0.05460011  0.03958693
   0.60779965  0.94555801  0.15167758
   0.10746492  0.92657369  0.55429965
   0.82924741  0.17528649  0.90033674
   0.02685624  0.02419928  0.63827103
   0.79467112  0.31472352  0.80391788
   0.00275614  0.00483209  0.75127208
   0.50846183  0.55460012  0.53958690
   0.60779965  0.44555801  0.65167761
   0.60746491  0.57342631  0.94570035
   0.32924739  0.32471353  0.59966326
   0.52685618  0.47580072  0.86172897
   0.29467115  0.18527651  0.69608212
   0.50275618  0.49516791  0.74872792
   0.00846184  0.94539988  0.96041310
   0.10779966  0.05444197  0.84832239
   0.60746491  0.07342626  0.44570041
   0.32924739  0.82471353  0.09966327
   0.52685618  0.97580069  0.36172894
   0.29467115  0.68527651  0.19608207
   0.50275618  0.99516791  0.24872789
   0.00846184  0.44539991  0.46041310
   0.10779966  0.55444199  0.34832245
   0.31750971  0.15670252  0.49889919
   0.31750971  0.65670258  0.99889922
   0.81750971  0.84329742  0.50110078
   0.81750971  0.34329748  0.00110078
   0.29556838  0.25003338  0.34690401
   0.29556838  0.75003338  0.84690404
   0.29145211  0.24496144  0.45021892
   0.29145211  0.74496144  0.95021892
BiTiFeO                                 
           1
     5.500634    0.001164    0.002646
     0.001169    5.495901   -0.003098
     0.019632    0.039504   40.922152
   Bi   Ti   O    Fe
  20  12  60   4
Direct configuration=     2
   0.25169047  0.24693957  0.10565827
   0.23836014  0.27301482  0.22079844
   0.25169047  0.74693957  0.60565828
   0.23836014  0.77301485  0.72079839
   0.74930669  0.75169378  0.89329062
   0.73533451  0.72344275  0.78188709
   0.74930669  0.25169378  0.39329065
   0.73533451  0.22344276  0.28188703
   0.75007855  0.75352810  0.10593347
   0.73586835  0.72910818  0.22062658
   0.75007855  0.25352813  0.60593349
   0.73586835  0.22910817  0.72062661
   0.25206488  0.24611234  0.89305136
   0.23475353  0.27657587  0.78206097
   0.25206488  0.74611237  0.39305139
   0.23475353  0.77657584  0.28206100
   0.24463111  0.24191604 -0.00107680
   0.24463111  0.74191604  0.49892320
   0.74260258  0.75931789  0.99674447
   0.74260258  0.25931789  0.49674441
   0.79584710  0.74911704  0.34706248
   0.79584710  0.24911704  0.84706248
   0.79573523  0.75074979  0.65452040
   0.79573523  0.25074981  0.15452041
   0.79391063  0.75556376  0.44815715
   0.79391063  0.25556376  0.94815712
   0.29106642  0.24644482  0.54904356
   0.29501695  0.24877577  0.65441218
   0.29501695  0.74877577  0.15441218
   0.29106642  0.74644480  0.04904355
   0.79052009  0.75375525  0.54988220
   0.79052009  0.25375525  0.04988220
   0.60083265  0.55668365  0.05611133
   0.32181523  0.32257922  0.40384115
   0.52653808  0.47287998  0.13755127
   0.29334440  0.18403559  0.30296603
   0.50287922  0.49537336  0.25057679
   0.01083721  0.95824899  0.03892874
   0.10519537  0.05420538  0.15035168
   0.60083265  0.05668365  0.55611130
   0.32181523  0.82257922  0.90384115
   0.52653808  0.97288001  0.63755126
   0.29334440  0.68403556  0.80296603
   0.50287922  0.99537339  0.75057682
   0.01083721  0.45824902  0.53892874
   0.10519537  0.55420543  0.65035171
   0.09787390  0.43844731  0.94526310
   0.82078971  0.67827703  0.59672291
   0.02594197  0.52670798  0.86252970
   0.79137154  0.81127256  0.69522823
   0.00282532  0.50476307  0.74784834
   0.51187107  0.04399528  0.96262555
   0.60712105  0.94674012  0.84956859
   0.09787390  0.93844734  0.44526307
   0.82078971  0.17827703  0.09672293
   0.02594197  0.02670800  0.36252970
   0.79137154  0.31127256  0.19522823
   0.00282532  0.00476310  0.24784835
   0.51187107  0.54399530  0.46262552
   0.60712105  0.44674018  0.34956862
   0.11177721  0.43962211  0.05442063
   0.82458396  0.67958746  0.40340665
   0.02671457  0.52457670  0.13770010
   0.79481534  0.81572934  0.30328413
   0.00185423  0.50467443  0.25043625
   0.50376302  0.04599033  0.04015719
   0.60755342  0.94405457  0.15102344
   0.11177721  0.93962208  0.55442067
   0.82458396  0.17958748  0.90340668
   0.02671457  0.02457668  0.63770007
   0.79481534  0.31572937  0.80328410
   0.00185423  0.00467443  0.75043625
   0.50376302  0.54599033  0.54015717
   0.60755342  0.44405457  0.65102346
   0.61465562  0.55873331  0.94700417
   0.32652841  0.32196025  0.59761047
   0.52804740  0.47388269  0.86240065
   0.29387780  0.18804027  0.69477567
   0.50303160  0.49465389  0.74796398
  -0.00001695  0.95594845  0.96139876
   0.10749519  0.05784237  0.84893192
   0.61465562  0.05873327  0.44700423
   0.32652841  0.82196025  0.09761048
   0.52804740  0.97388266  0.36240062
   0.29387780  0.68804027  0.19477563
   0.50303160  0.99465389  0.24796395
  -0.00001695  0.45594848  0.46139876
   0.10749519  0.55784239  0.34893197
   0.31743155  0.15906961  0.50148321
   0.31743155  0.65906967  1.00148323
   0.81730610  0.84006055  0.50103012
   0.81730610  0.34006061  0.00103012
   0.29445916  0.24973865  0.34677172
   0.29445916  0.74973865  0.84677175
   0.29009813  0.24556957  0.44803503
   0.29009813  0.74556957  0.94803503
BiTiFeO                                 
           1
     5.504320    0.000614   -0.001426
     0.000623    5.497936   -0.005517
    -0.010643    0.021500   40.898301
   Bi   Ti   O    Fe
  20  12  60   4
Direct configuration=     3
   0.25234768  0.24683933  0.10538686
   0.23901745  0.27213006  0.22059904
   0.25234768  0.74683933  0.60538687
   0.23901745  0.77213009  0.72059899
   0.74960971  0.75110330  0.89357213
   0.73437093  0.72392471  0.78190162
   0.74960971  0.25110330  0.39357216
   0.73437093  0.22392472  0.28190156
   0.75026276  0.75339832  0.10565767
   0.73709011  0.72978310  0.22037477
   0.75026276  0.25339835  0.60565769
   0.73709011  0.22978309  0.72037480
   0.25314811  0.24641378  0.89332802
   0.23477026  0.27730421  0.78209706
   0.25314811  0.74641381  0.39332805
   0.23477026  0.77730418  0.28209709
   0.24465847  0.24186479 -0.00110261
   0.24465847  0.74186479  0.49889739
   0.74276916  0.75936113  0.99683588
   0.74276916  0.25936113  0.49683582
   0.79609499  0.74956281  0.34723555
   0.79609499  0.24956281  0.84723555
   0.79576619  0.74906167  0.65294136
   0.79576619  0.24906168  0.15294138
   0.79345078  0.75438587  0.44892236
   0.79345078  0.25438587  0.94892233
   0.29117491  0.24658894  0.54920999
   0.29511259  0.25091583  0.65249839
   0.29511259  0.75091583  0.15249839
   0.29117491  0.74658893  0.04920998
   0.79021387  0.75413596  0.54975551
   0.79021387  0.25413596  0.04975550
   0.60173479  0.55549444  0.05610480
   0.32214435  0.32285192  0.40348450
   0.52673392  0.47280507  0.13774360
   0.29380759  0.18339159  0.30275668
   0.50289571  0.49506359  0.25077315
   0.01038428  0.95859517  0.03899693
   0.10481505  0.05385119  0.15053679
   0.60173479  0.05549445  0.55610478
   0.32214435  0.82285192  0.90348450
   0.52673392  0.97280510  0.63774359
   0.29380759  0.68339156  0.80275668
   0.50289571  0.99506362  0.75077318
   0.01038428  0.45859520  0.53899693
   0.10481505  0.55385124  0.65053682
   0.09992112  0.43946097  0.94533403
   0.82072451  0.67859474  0.59677760
   0.02568169  0.52630996  0.86242060
   0.79089025  0.81299090  0.69666171
   0.00257144  0.50413394  0.74799082
   0.51196389  0.04346464  0.96245498
   0.60678764  0.94745131  0.84944590
   0.09992112  0.93946100  0.44533400
   0.82072451  0.17859474  0.09677762
   0.02568169  0.02630998  0.36242060
   0.79089025  0.31299090  0.19666171
   0.00257144  0.00413397  0.24799084
   0.51196389  0.54346466  0.46245495
   0.60678764  0.44745137  0.34944593
   0.11039972  0.43986907  0.05451185
   0.82360956  0.67926967  0.40288771
   0.02674590  0.52454792  0.13788789
   0.79469628  0.81564164  0.30307295
   0.00160863  0.50517660  0.25062401
   0.50460796  0.04620101  0.04014980
   0.60712523  0.94441489  0.15117683
   0.11039972  0.93986904  0.55451189
   0.82360956  0.17926968  0.90288774
   0.02674590  0.02454789  0.63788786
   0.79469628  0.31564167  0.80307292
   0.00160863  0.00517660  0.75062401
   0.50460796  0.54620102  0.54014978
   0.60712523  0.44441489  0.65117686
   0.61287643  0.55933168  0.94690951
   0.32588005  0.32178593  0.59752551
   0.52861244  0.47354182  0.86230206
   0.29336895  0.18586010  0.69651095
   0.50295196  0.49497072  0.74810856
   0.00178005  0.95636497  0.96128009
   0.10695115  0.05762504  0.84886178
   0.61287643  0.05933163  0.44690957
   0.32588005  0.82178593  0.09752552
   0.52861244  0.97354179  0.36230203
   0.29336895  0.68586010  0.19651091
   0.50295196  0.99497072  0.24810853
   0.00178005  0.45636500  0.46128009
   0.10695115  0.55762506  0.34886184
   0.31756464  0.15978298  0.50125860
   0.31756464  0.65978304  1.00125862
   0.81745186  0.83917237  0.50094649
   0.81745186  0.33917243  0.00094649
   0.29381534  0.24950456  0.34680388
   0.29381534  0.74950456  0.84680391
   0.28903932  0.24570564  0.44848577
   0.28903932  0.74570564  0.94848577
BiTiFeO                                 
           1
     5.492596    0.000352    0.000138
     0.000360    5.485492   -0.005046
     0.001058    0.025005   40.926015
   Bi   Ti   O    Fe
  20  12  60   4
Direct configuration=     4
   0.25314660  0.24730823  0.10499846
   0.23989074  0.27181270  0.22055096
   0.25314660  0.74730823  0.60499848
   0.23989074  0.77181273  0.72055092
   0.74917042  0.75012443  0.89352622
   0.73165223  0.72506003  0.78154061
   0.74917042  0.25012443  0.39352625
   0.73165223  0.22506005  0.28154055
   0.75082237  0.75262346  0.10526563
   0.73903706  0.72988978  0.22023400
   0.75082237  0.25262348  0.60526565
   0.73903706  0.22988976  0.72023403
   0.25473878  0.24675397  0.89328306
   0.23444718  0.27930848  0.78177357
   0.25473878  0.74675400  0.39328309
   0.23444718  0.77930845  0.28177360
   0.24490142  0.24203543 -0.00155323
   0.24490142  0.74203543  0.49844677
   0.74282955  0.75934867  0.99658607
   0.74282955  0.25934867  0.49658601
   0.79694938  0.75082608  0.34667322
   0.79694938  0.25082608  0.84667322
   0.79524167  0.75124648  0.65395305
   0.79524167  0.25124649  0.15395306
   0.79381373  0.75264860  0.44939348
   0.79381373  0.25264860  0.94939345
   0.29112454  0.24646983  0.54912226
   0.29503233  0.24841851  0.65359937
   0.29503233  0.74841851  0.15359937
   0.29112454  0.74646981  0.04912225
   0.78991523  0.75457627  0.54933520
   0.78991523  0.25457627  0.04933519
   0.60318342  0.55280607  0.05612191
   0.32276568  0.32275599  0.40340596
   0.52680484  0.47289007  0.13772418
   0.29521812  0.18240266  0.30285682
   0.50346013  0.49448873  0.25121097
   0.01012099  0.95915677  0.03930024
   0.10452563  0.05349400  0.15036930
   0.60318342  0.05280607  0.55612189
   0.32276568  0.82275599  0.90340596
   0.52680484  0.97289010  0.63772416
   0.29521812  0.68240263  0.80285682
   0.50346013  0.99448875  0.75121100
   0.01012099  0.45915680  0.53930023
   0.10452563  0.55349405  0.65036933
   0.10330001  0.44072500  0.94588594
   0.82061953  0.67935958  0.59678053
   0.02514347  0.52567017  0.86239893
   0.79034657  0.81070770  0.69574249
   0.00219502  0.50293674  0.74846724
   0.51221248  0.04229626  0.96233141
   0.60666088  0.94819195  0.84955164
   0.10330001  0.94072503  0.44588591
   0.82061953  0.17935958  0.09678054
   0.02514347  0.02567019  0.36239893
   0.79034657  0.31070770  0.19574249
   0.00219502  0.00293677  0.24846725
   0.51221248  0.54229628  0.46233138
   0.60666088  0.44819201  0.34955167
   0.10724746  0.44157179  0.05479465
   0.82083431  0.68006243  0.40290895
   0.02680116  0.52462032  0.13784982
   0.79455097  0.81431076  0.30346347
   0.00148242  0.50598243  0.25104930
   0.50680575  0.04612820  0.04023778
   0.60629365  0.94464330  0.15091878
   0.10724746  0.94157176  0.55479469
   0.82083431  0.18006244  0.90290898
   0.02680116  0.02462029  0.63784979
   0.79455097  0.31431078  0.80346344
   0.00148242  0.00598244  0.75104930
   0.50680575  0.54612821  0.54023775
   0.60629365  0.44464330  0.65091881
   0.60958483  0.55940706  0.94706317
   0.32424400  0.32118688  0.59727712
   0.52938007  0.47291224  0.86230831
   0.29254820  0.18811259  0.69557438
   0.50318127  0.49548553  0.74856804
   0.00546858  0.95778989  0.96130136
   0.10643947  0.05794583  0.84909745
   0.60958483  0.05940702  0.44706323
   0.32424400  0.82118688  0.09727713
   0.52938007  0.97291221  0.36230828
   0.29254820  0.68811259  0.19557433
   0.50318127  0.99548553  0.24856801
   0.00546858  0.45778992  0.46130136
   0.10643947  0.55794585  0.34909751
   0.31810753  0.16180462  0.50121235
   0.31810753  0.66180468  1.00121238
   0.81794070  0.83681765  0.50100561
   0.81794070  0.33681771  0.00100561
   0.29248968  0.24853951  0.34622211
   0.29248968  0.74853951  0.84622214
   0.28732961  0.24634619  0.44871780
   0.28732961  0.74634619  0.94871780
BiTiFeO                                 
           1
     5.502358    0.000043    0.001470
     0.000051    5.496252   -0.004934
     0.010981    0.025992   41.036484
   Bi   Ti   O    Fe
  20  12  60   4
Direct configuration=     5
   0.25257025  0.24688878  0.10493753
   0.23977323  0.27197101  0.22074510
   0.25257025  0.74688878  0.60493754
   0.23977323  0.77197104  0.72074505
   0.74836906  0.75024174  0.89343025
   0.73069865  0.72588961  0.78164034
   0.74836906  0.25024174  0.39343028
   0.73069865  0.22588963  0.28164028
   0.75084529  0.75302128  0.10519915
   0.73959655  0.72972198  0.22039566
   0.75084529  0.25302131  0.60519917
   0.73959655  0.22972197  0.72039569
   0.25509620  0.24650913  0.89319576
   0.23449169  0.27991094  0.78187234
   0.25509620  0.74650916  0.39319579
   0.23449169  0.77991091  0.28187237
   0.24533560  0.24240501 -0.00171335
   0.24533560  0.74240501  0.49828665
   0.74260627  0.75906198  0.99649197
   0.74260627  0.25906198  0.49649191
   0.79711762  0.75011104  0.34697498
   0.79711762  0.25011104  0.84697498
   0.79556169  0.75012852  0.65333173
   0.79556169  0.25012853  0.15333174
   0.79403030  0.75331266  0.44912997
   0.79403030  0.25331266  0.94912994
   0.29091102  0.24664453  0.54915435
   0.29514329  0.24912863  0.65323397
   0.29514329  0.74912863  0.15323397
   0.29091102  0.74664451  0.04915433
   0.79037067  0.75381464  0.54948586
   0.79037067  0.25381464  0.04948586
   0.60265861  0.55250603  0.05606758
   0.32298505  0.32263191  0.40351902
   0.52674381  0.47309606  0.13777296
   0.29598702  0.18158776  0.30265361
   0.50369325  0.49480081  0.25116324
   0.01060862  0.95900980  0.03938012
   0.10453661  0.05331270  0.15032839
   0.60265861  0.05250604  0.55606755
   0.32298505  0.82263191  0.90351902
   0.52674381  0.97309609  0.63777295
   0.29598702  0.68158773  0.80265361
   0.50369325  0.99480084  0.75116327
   0.01060862  0.45900983  0.53938011
   0.10453661  0.55331275  0.65032842
   0.10333338  0.44020171  0.94620608
   0.82069196  0.67951130  0.59666113
   0.02530520  0.52572624  0.86234400
   0.78998754  0.81102702  0.69620063
   0.00206951  0.50304506  0.74845836
   0.51283174  0.04196482  0.96233028
   0.60647168  0.94815502  0.84957907
   0.10333338  0.94020174  0.44620605
   0.82069196  0.17951130  0.09666114
   0.02530520  0.02572626  0.36234400
   0.78998754  0.31102702  0.19620063
   0.00206951  0.00304509  0.24845838
   0.51283174  0.54196485  0.46233025
   0.60647168  0.44815508  0.34957910
   0.10654551  0.44302729  0.05485452
   0.81979365  0.68088034  0.40330381
   0.02685455  0.52466174  0.13788467
   0.79446408  0.81448310  0.30316524
   0.00149560  0.50573985  0.25100775
   0.50717933  0.04543120  0.04021132
   0.60600192  0.94480029  0.15083962
   0.10654551  0.94302726  0.55485456
   0.81979365  0.18088036  0.90330384
   0.02685455  0.02466171  0.63788464
   0.79446408  0.31448313  0.80316521
   0.00149560  0.00573985  0.75100775
   0.50717933  0.54543121  0.54021129
   0.60600192  0.44480029  0.65083965
   0.60942823  0.55827818  0.94721847
   0.32376047  0.32083919  0.59709507
   0.52925910  0.47290109  0.86227172
   0.29209117  0.18794114  0.69586984
   0.50332525  0.49510111  0.74852982
   0.00642186  0.95889649  0.96137720
   0.10662512  0.05778171  0.84917120
   0.60942823  0.05827814  0.44721853
   0.32376047  0.82083919  0.09709509
   0.52925910  0.97290106  0.36227169
   0.29209117  0.68794114  0.19586979
   0.50332525  0.99510111  0.24852979
   0.00642186  0.45889652  0.46137720
   0.10662512  0.55778174  0.34917126
   0.31851029  0.16259629  0.50124658
   0.31851029  0.66259635  1.00124661
   0.81819473  0.83600287  0.50090169
   0.81819473  0.33600293  0.00090169
   0.29221603  0.24878929  0.34629312
   0.29221603  0.74878929  0.84629315
   0.28741140  0.24651093  0.44858822
   0.28741140  0.74651093  0.94858822
BiTiFeO                                 
           1
     5.490470   -0.000416    0.002075
    -0.000409    5.483787   -0.004678
     0.015468    0.027816   41.003738
   Bi   Ti   O    Fe
  20  12  60   4
Direct configuration=     6
   0.25263302  0.24683063  0.10470455
   0.23963868  0.27190291  0.22074846
   0.25263302  0.74683063  0.60470456
   0.23963868  0.77190294  0.72074842
   0.74735863  0.74996504  0.89349544
   0.72936139  0.72726889  0.78169002
   0.74735863  0.24996504  0.39349547
   0.72936139  0.22726890  0.28168996
   0.75108052  0.75272208  0.10494410
   0.74108777  0.72944920  0.22035966
   0.75108052  0.25272211  0.60494412
   0.74108777  0.22944918  0.72035969
   0.25638582  0.24648751  0.89327810
   0.23448509  0.28048854  0.78191922
   0.25638582  0.74648754  0.39327813
   0.23448509  0.78048851  0.28191925
   0.24592043  0.24303568 -0.00193998
   0.24592043  0.74303568  0.49806002
   0.74251024  0.75850319  0.99648000
   0.74251024  0.25850319  0.49647994
   0.79730137  0.75081700  0.34654045
   0.79730137  0.25081700  0.84654045
   0.79546989  0.75076373  0.65365075
   0.79546989  0.25076374  0.15365076
   0.79395855  0.75344910  0.44947897
   0.79395855  0.25344910  0.94947894
   0.29106922  0.24704200  0.54911553
   0.29521742  0.24885492  0.65317151
   0.29521742  0.74885492  0.15317151
   0.29106922  0.74704198  0.04911552
   0.79072780  0.75323644  0.54934266
   0.79072780  0.25323644  0.04934266
   0.60214852  0.55164700  0.05601399
   0.32343146  0.32254206  0.40344004
   0.52670117  0.47313802  0.13777171
   0.29729021  0.18125819  0.30263955
   0.50381754  0.49522044  0.25126411
   0.01083900  0.95919115  0.03954404
   0.10431568  0.05316487  0.15018931
   0.60214852  0.05164701  0.55601397
   0.32343146  0.82254206  0.90344004
   0.52670117  0.97313805  0.63777169
   0.29729021  0.68125816  0.80263955
   0.50381754  0.99522047  0.75126414
   0.01083900  0.45919118  0.53954403
   0.10431568  0.55316492  0.65018934
   0.10463452  0.44002331  0.94663603
   0.82068627  0.67975769  0.59670750
   0.02541291  0.52568618  0.86225603
   0.78953811  0.80984304  0.69588216
   0.00191594  0.50311950  0.74860987
   0.51376055  0.04097876  0.96220080
   0.60577248  0.94819830  0.84965302
   0.10463452  0.94002334  0.44663600
   0.82068627  0.17975769  0.09670751
   0.02541291  0.02568620  0.36225603
   0.78953811  0.30984304  0.19588216
   0.00191594  0.00311953  0.24860989
   0.51376055  0.54097878  0.46220077
   0.60577248  0.44819836  0.34965305
   0.10477313  0.44477998  0.05500807
   0.81791608  0.68178544  0.40331083
   0.02667420  0.52468177  0.13786578
   0.79427590  0.81328628  0.30343817
   0.00160455  0.50566170  0.25114275
   0.50812666  0.04444713  0.04019529
   0.60558934  0.94518592  0.15062305
   0.10477313  0.94477995  0.55500811
   0.81791608  0.18178546  0.90331086
   0.02667420  0.02468174  0.63786575
   0.79427590  0.31328631  0.80343814
   0.00160455  0.00566170  0.75114275
   0.50812666  0.54444714  0.54019527
   0.60558934  0.44518592  0.65062308
   0.60834305  0.55757407  0.94733720
   0.32280382  0.32042064  0.59695132
   0.52901724  0.47280183  0.86221200
   0.29119993  0.18847487  0.69597976
   0.50330981  0.49484162  0.74863059
   0.00866743  0.96039585  0.96139646
   0.10664107  0.05719958  0.84933699
   0.60834305  0.05757402  0.44733726
   0.32280382  0.82042064  0.09695133
   0.52901724  0.97280180  0.36221197
   0.29119993  0.68847487  0.19597971
   0.50330981  0.99484162  0.24863056
   0.00866743  0.46039588  0.46139646
   0.10664107  0.55719961  0.34933705
   0.31912337  0.16403953  0.50119409
   0.31912337  0.66403959  1.00119412
   0.81860149  0.83444914  0.50080012
   0.81860149  0.33444920  0.00080012
   0.29164322  0.24833696  0.34605987
   0.29164322  0.74833696  0.84605990
   0.28721921  0.24705214  0.44872996
   0.28721921  0.74705214  0.94872996
BiTiFeO                                 
           1
     5.488835   -0.000643    0.002793
    -0.000636    5.482112   -0.004839
     0.020815    0.026642   41.051489
   Bi   Ti   O    Fe
  20  12  60   4
Direct configuration=     7
   0.25220347  0.24676107  0.10465389
   0.23967206  0.27211103  0.22083391
   0.25220347  0.74676107  0.60465391
   0.23967206  0.77211106  0.72083386
   0.74657457  0.75018118  0.89343704
   0.72829526  0.72790073  0.78167444
   0.74657457  0.25018118  0.39343707
   0.72829526  0.22790075  0.28167438
   0.75105168  0.75269581  0.10487255
   0.74153334  0.72946347  0.22043959
   0.75105168  0.25269584  0.60487257
   0.74153334  0.22946346  0.72043962
   0.25638820  0.24625947  0.89322342
   0.23460000  0.28106834  0.78189646
   0.25638820  0.74625950  0.39322345
   0.23460000  0.78106831  0.28189649
   0.24627643  0.24345920 -0.00209887
   0.24627643  0.74345920  0.49790113
   0.74243827  0.75822341  0.99644848
   0.74243827  0.25822341  0.49644842
   0.79756615  0.75031926  0.34683248
   0.79756615  0.25031926  0.84683248
   0.79552476  0.75029902  0.65330205
   0.79552476  0.25029903  0.15330207
   0.79423259  0.75340268  0.44939984
   0.79423259  0.25340268  0.94939981
   0.29111054  0.24713649  0.54910313
   0.29524249  0.24866737  0.65329301
   0.29524249  0.74866737  0.15329301
   0.29111054  0.74713647  0.04910312
   0.79094178  0.75289856  0.54939048
   0.79094178  0.25289856  0.04939047
   0.60177480  0.55098764  0.05595061
   0.32372570  0.32239427  0.40350957
   0.52659223  0.47326166  0.13776152
   0.29817145  0.18088235  0.30255805
   0.50404415  0.49533798  0.25128424
   0.01103567  0.95937702  0.03961534
   0.10434864  0.05297535  0.15009637
   0.60177480  0.05098765  0.55595059
   0.32372570  0.82239427  0.90350957
   0.52659223  0.97326169  0.63776150
   0.29817145  0.68088233  0.80255805
   0.50404415  0.99533800  0.75128427
   0.01103567  0.45937705  0.53961533
   0.10434864  0.55297540  0.65009640
   0.10517893  0.43987239  0.94689901
   0.82077169  0.67978147  0.59661659
   0.02541484  0.52559342  0.86219425
   0.78925993  0.80977397  0.69611055
   0.00172111  0.50315728  0.74869407
   0.51436438  0.04045327  0.96218129
   0.60560585  0.94831511  0.84969286
   0.10517893  0.93987242  0.44689898
   0.82077169  0.17978147  0.09661660
   0.02541484  0.02559344  0.36219425
   0.78925993  0.30977397  0.19611055
   0.00172111  0.00315731  0.24869409
   0.51436438  0.54045330  0.46218126
   0.60560585  0.44831517  0.34969289
   0.10380586  0.44583022  0.05505949
   0.81704750  0.68242947  0.40351992
   0.02667889  0.52481554  0.13784747
   0.79414162  0.81318877  0.30321946
   0.00154367  0.50549778  0.25117889
   0.50878715  0.04389468  0.04017148
   0.60527747  0.94529801  0.15048313
   0.10380586  0.94583019  0.55505953
   0.81704750  0.18242948  0.90351995
   0.02667889  0.02481551  0.63784744
   0.79414162  0.31318880  0.80321943
   0.00154367  0.00549779  0.75117889
   0.50878715  0.54389469  0.54017145
   0.60527747  0.44529801  0.65048316
   0.60805398  0.55712958  0.94744869
   0.32242363  0.32028839  0.59686517
   0.52889523  0.47270691  0.86216438
   0.29075079  0.18889907  0.69584578
   0.50359053  0.49466981  0.74866889
   0.00963669  0.96119307  0.96145939
   0.10657577  0.05707052  0.84943554
   0.60805398  0.05712954  0.44744875
   0.32242363  0.82028839  0.09686519
   0.52889523  0.97270688  0.36216435
   0.29075079  0.68889907  0.19584574
   0.50359053  0.99466981  0.24866886
   0.00963669  0.46119310  0.46145939
   0.10657577  0.55707054  0.34943560
   0.31959776  0.16472813  0.50120294
   0.31959776  0.66472819  1.00120297
   0.81886340  0.83373175  0.50078645
   0.81886340  0.33373181  0.00078645
   0.29139950  0.24828319  0.34606386
   0.29139950  0.74828319  0.84606389
   0.28726927  0.24733464  0.44871275
   0.28726927  0.74733464  0.94871275
BiTiFeO                                 
           1
     5.496103   -0.000684    0.003301
    -0.000677    5.489563   -0.004927
     0.024637    0.026014   41.048309
   Bi   Ti   O    Fe
  20  12  60   4
Direct configuration=     8
   0.25200495  0.24664776  0.10459580
   0.23959010  0.27206949  0.22087651
   0.25200495  0.74664776  0.60459582
   0.23959010  0.77206952  0.72087647
   0.74601232  0.75029564  0.89343208
   0.72764121  0.72838171  0.78173014
   0.74601232  0.25029564  0.39343211
   0.72764121  0.22838172  0.28173008
   0.75101537  0.75266082  0.10479598
   0.74209215  0.72952519  0.22048040
   0.75101537  0.25266085  0.60479600
   0.74209215  0.22952518  0.72048043
   0.25652071  0.24613537  0.89322167
   0.23467015  0.28135666  0.78193739
   0.25652071  0.74613540  0.39322170
   0.23467015  0.78135663  0.28193742
   0.24662623  0.24381386 -0.00219536
   0.24662623  0.74381386  0.49780464
   0.74248658  0.75797651  0.99647114
   0.74248658  0.25797651  0.49647108
   0.79766315  0.75018268  0.34693148
   0.79766315  0.25018268  0.84693148
   0.79555836  0.74986599  0.65299724
   0.79555836  0.24986600  0.15299726
   0.79437014  0.75346238  0.44939377
   0.79437014  0.25346238  0.94939374
   0.29111026  0.24732188  0.54913763
   0.29527518  0.24907806  0.65297481
   0.29527518  0.74907806  0.15297481
   0.29111026  0.74732187  0.04913762
   0.79115750  0.75257787  0.54943226
   0.79115750  0.25257787  0.04943225
   0.60135870  0.55051142  0.05588937
   0.32394290  0.32225426  0.40353954
   0.52652720  0.47329095  0.13776753
   0.29889914  0.18072167  0.30247636
   0.50405704  0.49555425  0.25127555
   0.01120738  0.95952605  0.03965986
   0.10427155  0.05288302  0.15004114
   0.60135870  0.05051143  0.55588934
   0.32394290  0.82225426  0.90353954
   0.52652720  0.97329098  0.63776751
   0.29889914  0.68072164  0.80247636
   0.50405704  0.99555428  0.75127558
   0.01120738  0.45952608  0.53965986
   0.10427155  0.55288307  0.65004117
   0.10562774  0.43976388  0.94709422
   0.82079833  0.67980404  0.59657374
   0.02542407  0.52556617  0.86214343
   0.78903814  0.80975297  0.69632655
   0.00164833  0.50326553  0.74873118
   0.51487051  0.03999250  0.96215020
   0.60534361  0.94837808  0.84972089
   0.10562774  0.93976391  0.44709419
   0.82079833  0.17980404  0.09657375
   0.02542407  0.02556619  0.36214343
   0.78903814  0.30975297  0.19632655
   0.00164833  0.00326556  0.24873120
   0.51487051  0.53999253  0.46215017
   0.60534361  0.44837814  0.34972092
   0.10303227  0.44667090  0.05508813
   0.81637722  0.68294120  0.40362208
   0.02659454  0.52487191  0.13784636
   0.79402809  0.81290055  0.30314450
   0.00155015  0.50541443  0.25119412
   0.50926719  0.04336725  0.04013927
   0.60507276  0.94544530  0.15038756
   0.10303227  0.94667087  0.55508817