BiTiFeO                                 
           1
     5.488520    0.000000    0.000000
     0.000000    5.482381   -0.001192
     0.000000    0.053389   40.420967
   Bi   Ti   O    Fe
  20  12  60   4
Direct configuration=     1
   0.25163469  0.24552768  0.10456018
   0.23768441  0.27533320  0.21951799
   0.25163469  0.74552768  0.60456020
   0.23768441  0.77533323  0.71951795
   0.75163466  0.75447232  0.89543980
   0.73768437  0.72466677  0.78048205
   0.75163466  0.25447232  0.39543983
   0.73768437  0.22466679  0.28048199
   0.74778056  0.75425547  0.10488448
   0.73468602  0.72707325  0.21940872
   0.74778056  0.25425550  0.60488451
   0.73468602  0.22707324  0.71940875
   0.24778058  0.24574450  0.89511549
   0.23468603  0.27292678  0.78059125
   0.24778058  0.74574453  0.39511553
   0.23468603  0.77292675  0.28059128
   0.24248166  0.24192810  0.00106251
   0.24248166  0.74192810  0.50106251
   0.74248165  0.75807190  0.99893749
   0.74248165  0.25807190  0.49893743
   0.79474807  0.74971396  0.34751427
   0.79474807  0.24971396  0.84751427
   0.79018825  0.75150693  0.45036468
   0.79018825  0.25150693  0.95036465
   0.29018825  0.24849309  0.54963535
   0.29474810  0.25028604  0.65248573
   0.29474810  0.75028604  0.15248573
   0.29018825  0.74849307  0.04963534
   0.29145211  0.24496144  0.45021892
   0.29145211  0.74496144  0.95021892
   0.79145211  0.75503856  0.54978108
   0.79145211  0.25503856  0.04978108
   0.60797232  0.55333757  0.05623510
   0.32074291  0.32244712  0.40269166
   0.52769464  0.47232899  0.13806446
   0.29197162  0.18621907  0.30358261
   0.50278539  0.49499974  0.25136027
   0.00366211  0.96418035  0.03809405
   0.10417966  0.05360783  0.15095773
   0.60797232  0.05333758  0.55623508
   0.32074291  0.82244712  0.90269166
   0.52769464  0.97232902  0.63806444
   0.29197162  0.68621904  0.80358261
   0.50278539  0.99499977  0.75136030
   0.00366211  0.46418038  0.53809404
   0.10417966  0.55360788  0.65095776
   0.10797235  0.44666240  0.94376492
   0.82074291  0.67755288  0.59730834
   0.02769462  0.52767098  0.86193556
   0.79197168  0.81378096  0.69641739
   0.00278540  0.50500023  0.74863970
   0.50366211  0.03581963  0.96190596
   0.60417968  0.94639212  0.84904224
   0.10797235  0.94666243  0.44376490
   0.82074291  0.17755288  0.09730835
   0.02769462  0.02767100  0.36193556
   0.79197168  0.31378096  0.19641739
   0.00278540  0.00500026  0.24863972
   0.50366211  0.53581965  0.46190593
   0.60417968  0.44639218  0.34904227
   0.10746492  0.42657372  0.05429961
   0.82924741  0.67528647  0.40033671
   0.02685624  0.52419931  0.13827106
   0.79467112  0.81472349  0.30391791
   0.00275614  0.50483209  0.25127208
   0.50846183  0.05460011  0.03958693
   0.60779965  0.94555801  0.15167758
   0.10746492  0.92657369  0.55429965
   0.82924741  0.17528649  0.90033674
   0.02685624  0.02419928  0.63827103
   0.79467112  0.31472352  0.80391788
   0.00275614  0.00483209  0.75127208
   0.50846183  0.55460012  0.53958690
   0.60779965  0.44555801  0.65167761
   0.60746491  0.57342631  0.94570035
   0.32924739  0.32471353  0.59966326
   0.52685618  0.47580072  0.86172897
   0.29467115  0.18527651  0.69608212
   0.50275618  0.49516791  0.74872792
   0.00846184  0.94539988  0.96041310
   0.10779966  0.05444197  0.84832239
   0.60746491  0.07342626  0.44570041
   0.32924739  0.82471353  0.09966327
   0.52685618  0.97580069  0.36172894
   0.29467115  0.68527651  0.19608207
   0.50275618  0.99516791  0.24872789
   0.00846184  0.44539991  0.46041310
   0.10779966  0.55444199  0.34832245
   0.31750971  0.15670252  0.49889919
   0.31750971  0.65670258  0.99889922
   0.81750971  0.84329742  0.50110078
   0.81750971  0.34329748  0.00110078
   0.29556838  0.25003338  0.34690401
   0.29556838  0.75003338  0.84690404
   0.79556835  0.74996662  0.65309596
   0.79556835  0.24996664  0.15309598
BiTiFeO                                 
           1
     5.505671    0.000000    0.000000
     0.000000    5.502556   -0.006387
     0.000000    0.015406   40.981623
   Bi   Ti   O    Fe
  20  12  60   4
Direct configuration=     2
   0.25239389  0.24904993  0.10805778
   0.23567965  0.27453640  0.21937968
   0.25239389  0.74904993  0.60805779
   0.23567965  0.77453643  0.71937963
   0.75239386  0.75095007  0.89194221
   0.73567960  0.72546357  0.78062037
   0.75239386  0.25095007  0.39194223
   0.73567960  0.22546358  0.28062031
   0.75230222  0.75192583  0.10831718
   0.73576600  0.72441699  0.21920657
   0.75230222  0.25192586  0.60831720
   0.73576600  0.22441697  0.71920660
   0.25230224  0.24807414  0.89168280
   0.23576602  0.27558304  0.78079340
   0.25230224  0.74807417  0.39168283
   0.23576602  0.77558301  0.28079343
   0.24377017  0.24192011  0.00109300
   0.24377017  0.74192011  0.50109300
   0.74377016  0.75807989  0.99890700
   0.74377016  0.25807989  0.49890694
   0.79605416  0.74976287  0.34575202
   0.79605416  0.24976287  0.84575202
   0.79232409  0.75389517  0.44839381
   0.79232409  0.25389517  0.94839378
   0.29232409  0.24610485  0.55160622
   0.29605419  0.25023713  0.65424798
   0.29605419  0.75023713  0.15424798
   0.29232409  0.74610483  0.05160621
   0.29144105  0.24582538  0.44757710
   0.29144105  0.74582538  0.94757710
   0.79144105  0.75417462  0.55242290
   0.79144105  0.25417462  0.05242290
   0.59891772  0.55708168  0.05491082
   0.31949114  0.31954552  0.40502870
   0.52566569  0.47283553  0.13681435
   0.29283605  0.18468232  0.30353964
   0.50297104  0.49588432  0.25139245
   0.01074863  0.95780142  0.03787265
   0.10748440  0.05421078  0.14976533
   0.59891772  0.05708169  0.55491080
   0.31949114  0.81954552  0.90502870
   0.52566569  0.97283556  0.63681433
   0.29283605  0.68468229  0.80353964
   0.50297104  0.99588435  0.75139248
   0.01074863  0.45780145  0.53787264
   0.10748440  0.55421083  0.64976536
   0.09891775  0.44291829  0.94508920
   0.81949114  0.68045448  0.59497130
   0.02566567  0.52716444  0.86318567
   0.79283611  0.81531771  0.69646036
   0.00297105  0.50411565  0.74860752
   0.51074863  0.04219855  0.96212736
   0.60748442  0.94578917  0.85023464
   0.09891775  0.94291832  0.44508917
   0.81949114  0.18045448  0.09497131
   0.02566567  0.02716446  0.36318567
   0.79283611  0.31531771  0.19646036
   0.00297105  0.00411568  0.24860753
   0.51074863  0.54219858  0.46212733
   0.60748442  0.44578923  0.35023467
   0.11204190  0.44078169  0.05318321
   0.82466529  0.68019040  0.40398683
   0.02700314  0.52562369  0.13700949
   0.79419925  0.81331423  0.30444207
   0.00240814  0.50552710  0.25124460
   0.50121837  0.04481264  0.03915145
   0.60828441  0.94127938  0.15039579
   0.11204190  0.94078166  0.55318325
   0.82466529  0.18019042  0.90398686
   0.02700314  0.02562366  0.63700946
   0.79419925  0.31331426  0.80444204
   0.00240814  0.00552710  0.75124460
   0.50121837  0.54481265  0.53915143
   0.60828441  0.44127938  0.65039582
   0.61204188  0.55921834  0.94681675
   0.32466526  0.31980960  0.59601314
   0.52700309  0.47437634  0.86299054
   0.29419928  0.18668577  0.69555796
   0.50240818  0.49447290  0.74875540
   0.00121837  0.95518735  0.96084857
   0.10828442  0.05872060  0.84960418
   0.61204188  0.05921830  0.44681681
   0.32466526  0.81980960  0.09601316
   0.52700309  0.97437631  0.36299051
   0.29419928  0.68668577  0.19555791
   0.50240818  0.99447290  0.24875537
   0.00121837  0.45518738  0.46084857
   0.10828442  0.55872062  0.34960424
   0.31763244  0.15913908  0.50028944
   0.31763244  0.65913914  1.00028947
   0.81763244  0.84086086  0.49971053
   0.81763244  0.34086092 -0.00028947
   0.29470097  0.24927012  0.34563283
   0.29470097  0.74927012  0.84563286
   0.79470094  0.75072988  0.65436714
   0.79470094  0.25072990  0.15436715
BiTiFeO                                 
           1
     5.493624    0.000000    0.000000
     0.000000    5.488375   -0.004791
     0.000000    0.027291   41.012925
   Bi   Ti   O    Fe
  20  12  60   4
Direct configuration=     3
   0.25366369  0.24968212  0.10755236
   0.23512735  0.27376925  0.21936558
   0.25366369  0.74968212  0.60755237
   0.23512735  0.77376928  0.71936553
   0.75366366  0.75031788  0.89244763
   0.73512730  0.72623072  0.78063447
   0.75366366  0.25031788  0.39244766
   0.73512730  0.22623073  0.28063441
   0.75322067  0.75106716  0.10781277
   0.73663920  0.72405744  0.21911199
   0.75322067  0.25106719  0.60781279
   0.73663920  0.22405743  0.71911202
   0.25322068  0.24893281  0.89218721
   0.23663921  0.27594259  0.78088798
   0.25322068  0.74893284  0.39218724
   0.23663921  0.77594256  0.28088801
   0.24362020  0.24239568  0.00103467
   0.24362020  0.74239568  0.50103467
   0.74362019  0.75760432  0.99896533
   0.74362019  0.25760432  0.49896527
   0.79603620  0.74885823  0.34692673
   0.79603620  0.24885823  0.84692673
   0.79195896  0.75345096  0.44922260
   0.79195896  0.25345096  0.94922257
   0.29195896  0.24654906  0.55077743
   0.29603623  0.25114177  0.65307327
   0.29603623  0.75114177  0.15307327
   0.29195896  0.74654904  0.05077742
   0.29037284  0.24494160  0.44897433
   0.29037284  0.74494160  0.94897433
   0.79037284  0.75505840  0.55102567
   0.79037284  0.25505840  0.05102567
   0.60038375  0.55612012  0.05500416
   0.31956229  0.32059921  0.40404924
   0.52591952  0.47310295  0.13703038
   0.29302324  0.18378574  0.30302892
   0.50289187  0.49606134  0.25141629
   0.01049490  0.95839429  0.03807448
   0.10643334  0.05299673  0.15001692
   0.60038375  0.05612013  0.55500414
   0.31956229  0.82059921  0.90404924
   0.52591952  0.97310298  0.63703037
   0.29302324  0.68378571  0.80302892
   0.50289187  0.99606137  0.75141632
   0.01049490  0.45839432  0.53807447
   0.10643334  0.55299678  0.65001695
   0.10038378  0.44387985  0.94499586
   0.81956229  0.67940079  0.59595076
   0.02591949  0.52689702  0.86296963
   0.79302330  0.81621429  0.69697108
   0.00289188  0.50393863  0.74858368
   0.51049490  0.04160568  0.96192553
   0.60643336  0.94700322  0.84998305
   0.10038378  0.94387988  0.44499583
   0.81956229  0.17940079  0.09595077
   0.02591949  0.02689705  0.36296963
   0.79302330  0.31621429  0.19697108
   0.00289188  0.00393866  0.24858369
   0.51049490  0.54160571  0.46192550
   0.60643336  0.44700328  0.34998308
   0.11058466  0.44032687  0.05338512
   0.82397445  0.67964935  0.40340339
   0.02759494  0.52567434  0.13722592
   0.79379120  0.81438323  0.30341989
   0.00232014  0.50573471  0.25126790
   0.50281323  0.04499050  0.03929529
   0.60736026  0.94241829  0.15061762
   0.11058466  0.94032684  0.55338516
   0.82397445  0.17964937  0.90340342
   0.02759494  0.02567431  0.63722589
   0.79379120  0.31438325  0.80341986
   0.00232014  0.00573471  0.75126790
   0.50281323  0.54499051  0.53929526
   0.60736026  0.44241829  0.65061765
   0.61058465  0.55967316  0.94661484
   0.32397442  0.32035065  0.59659658
   0.52759488  0.47432569  0.86277411
   0.29379123  0.18561677  0.69658014
   0.50232017  0.49426529  0.74873210
   0.00281323  0.95500949  0.96070474
   0.10736027  0.05758169  0.84938235
   0.61058465  0.05967311  0.44661490
   0.32397442  0.82035065  0.09659660
   0.52759488  0.97432566  0.36277408
   0.29379123  0.68561677  0.19658010
   0.50232017  0.99426529  0.24873207
   0.00281323  0.45500952  0.46070474
   0.10736027  0.55758171  0.34938241
   0.31791641  0.16004467  0.50022956
   0.31791641  0.66004473  1.00022959
   0.81791641  0.83995527  0.49977041
   0.81791641  0.33995533 -0.00022959
   0.29429654  0.24957881  0.34596297
   0.29429654  0.74957881  0.84596300
   0.79429651  0.75042119  0.65403700
   0.79429651  0.25042120  0.15403702
BiTiFeO                                 
           1
     5.494172    0.000000    0.000000
     0.000000    5.488920   -0.005129
     0.000000    0.024821   41.071352
   Bi   Ti   O    Fe
  20  12  60   4
Direct configuration=     4
   0.25418726  0.25042909  0.10736017
   0.23344062  0.27297272  0.21976894
   0.25418726  0.75042909  0.60736018
   0.23344062  0.77297275  0.71976890
   0.75418723  0.74957091  0.89263982
   0.73344058  0.72702725  0.78023110
   0.75418723  0.24957091  0.39263984
   0.73344058  0.22702726  0.28023104
   0.75503715  0.75018595  0.10760991
   0.73785530  0.72235075  0.21936957
   0.75503715  0.25018598  0.60760993
   0.73785530  0.22235073  0.71936960
   0.25503717  0.24981402  0.89239007
   0.23785532  0.27764928  0.78063040
   0.25503717  0.74981405  0.39239010
   0.23785532  0.77764925  0.28063043
   0.24371725  0.24300622  0.00097089
   0.24371725  0.74300622  0.50097089
   0.74371724  0.75699378  0.99902911
   0.74371724  0.25699378  0.49902905
   0.79622358  0.75112323  0.34592320
   0.79622358  0.25112323  0.84592320
   0.79213988  0.75212705  0.44954181
   0.79213988  0.25212705  0.94954178
   0.29213988  0.24787296  0.55045822
   0.29622361  0.24887677  0.65407680
   0.29622361  0.74887677  0.15407680
   0.29213988  0.74787295  0.05045821
   0.28994572  0.24612971  0.44943230
   0.28994572  0.74612971  0.94943230
   0.78994572  0.75387029  0.55056770
   0.78994572  0.25387029  0.05056769
   0.60269811  0.55383191  0.05470574
   0.31858485  0.31942051  0.40432255
   0.52605361  0.47394300  0.13718863
   0.29384924  0.18348080  0.30315446
   0.50295829  0.49621679  0.25136524
   0.01022121  0.95982925  0.03825958
   0.10558988  0.05174116  0.14989089
   0.60269811  0.05383192  0.55470571
   0.31858485  0.81942051  0.90432255
   0.52605361  0.97394303  0.63718861
   0.29384924  0.68348077  0.80315446
   0.50295829  0.99621682  0.75136527
   0.01022121  0.45982928  0.53825958
   0.10558988  0.55174121  0.64989092
   0.10269814  0.44616806  0.94529429
   0.81858485  0.68057949  0.59567745
   0.02605358  0.52605697  0.86281139
   0.79384930  0.81651923  0.69684554
   0.00295831  0.50378318  0.74863473
   0.51022121  0.04017073  0.96174042
   0.60558990  0.94825879  0.85010908
   0.10269814  0.94616809  0.44529426
   0.81858485  0.18057949  0.09567746
   0.02605358  0.02605699  0.36281139
   0.79384930  0.31651923  0.19684554
   0.00295831  0.00378321  0.24863475
   0.51022121  0.54017075  0.46174039
   0.60558990  0.44825885  0.35010911
   0.10712467  0.44103594  0.05340860
   0.82113077  0.68080727  0.40360678
   0.02893822  0.52607355  0.13736323
   0.79311541  0.81209273  0.30432786
   0.00248783  0.50597416  0.25124799
   0.50641823  0.04483585  0.03929697
   0.60602554  0.94299014  0.15040639
   0.10712467  0.94103591  0.55340864
   0.82113077  0.18080728  0.90360681
   0.02893822  0.02607353  0.63736320
   0.79311541  0.31209276  0.80432783
   0.00248783  0.00597417  0.75124799
   0.50641823  0.54483586  0.53929695
   0.60602554  0.44299014  0.65040642
   0.60712465  0.55896409  0.94659136
   0.32113074  0.31919273  0.59639319
   0.52893816  0.47392648  0.86263680
   0.29311544  0.18790727  0.69567217
   0.50248786  0.49402584  0.74875201
   0.00641823  0.95516414  0.96070305
   0.10602554  0.05700984  0.84959358
   0.60712465  0.05896405  0.44659142
   0.32113074  0.81919273  0.09639320
   0.52893816  0.97392645  0.36263677
   0.29311544  0.68790727  0.19567212
   0.50248786  0.99402584  0.24875198
   0.00641823  0.45516417  0.46070305
   0.10602554  0.55700986  0.34959364
   0.31880327  0.16258850  0.50009338
   0.31880327  0.66258856  1.00009341
   0.81880327  0.83741144  0.49990659
   0.81880327  0.33741150 -0.00009341
   0.29345395  0.24857157  0.34529133
   0.29345395  0.74857157  0.84529136
   0.79345392  0.75142843  0.65470864
   0.79345392  0.25142845  0.15470865
BiTiFeO                                 
           1
     5.492697    0.000000    0.000000
     0.000000    5.486199   -0.003493
     0.000000    0.037156   41.192831
   Bi   Ti   O    Fe
  20  12  60   4
Direct configuration=     5
   0.25414060  0.25036944  0.10735381
   0.23326426  0.27279694  0.21976147
   0.25414060  0.75036944  0.60735383
   0.23326426  0.77279697  0.71976142
   0.75414057  0.74963056  0.89264617
   0.73326422  0.72720303  0.78023858
   0.75414057  0.24963056  0.39264620
   0.73326422  0.22720304  0.28023852
   0.75512884  0.75022512  0.10760262
   0.73806156  0.72221590  0.21934601
   0.75512884  0.25022515  0.60760264
   0.73806156  0.22221589  0.71934604
   0.25512886  0.24977485  0.89239736
   0.23806158  0.27778413  0.78065396
   0.25512886  0.74977488  0.39239739
   0.23806158  0.77778410  0.28065399
   0.24377139  0.24311669  0.00096458
   0.24377139  0.74311669  0.50096458
   0.74377137  0.75688331  0.99903542
   0.74377137  0.25688331  0.49903536
   0.79630956  0.75073171  0.34617929
   0.79630956  0.25073171  0.84617929
   0.79216514  0.75216686  0.44951344
   0.79216514  0.25216686  0.94951341
   0.29216514  0.24783315  0.55048659
   0.29630959  0.24926829  0.65382071
   0.29630959  0.74926829  0.15382071
   0.29216514  0.74783314  0.05048658
   0.29007960  0.24621518  0.44941430
   0.29007960  0.74621518  0.94941430
   0.79007960  0.75378482  0.55058570
   0.79007960  0.25378482  0.05058570
   0.60262955  0.55390253  0.05466174
   0.31848745  0.31933506  0.40435600
   0.52613812  0.47394010  0.13722119
   0.29395774  0.18325278  0.30304042
   0.50291896  0.49627925  0.25136184
   0.01034434  0.95984226  0.03825950
   0.10544011  0.05171264  0.14988672
   0.60262955  0.05390254  0.55466171
   0.31848745  0.81933506  0.90435600
   0.52613812  0.97394013  0.63722117
   0.29395774  0.68325275  0.80304042
   0.50291896  0.99627928  0.75136187
   0.01034434  0.45984229  0.53825950
   0.10544011  0.55171269  0.64988675
   0.10262958  0.44609744  0.94533829
   0.81848745  0.68066494  0.59564400
   0.02613809  0.52605987  0.86277883
   0.79395780  0.81674725  0.69695958
   0.00291897  0.50372072  0.74863813
   0.51034434  0.04015772  0.96174050
   0.60544012  0.94828731  0.85011325
   0.10262958  0.94609747  0.44533826
   0.81848745  0.18066494  0.09564402
   0.02613809  0.02605989  0.36277883
   0.79395780  0.31674725  0.19695958
   0.00291897  0.00372075  0.24863815
   0.51034434  0.54015774  0.46174047
   0.60544012  0.44828737  0.35011328
   0.10706846  0.44131573  0.05339132
   0.82087615  0.68096087  0.40367190
   0.02893547  0.52600595  0.13739099
   0.79298730  0.81233828  0.30408713
   0.00246660  0.50604243  0.25125514
   0.50651071  0.04461076  0.03927660
   0.60599979  0.94311248  0.15039351
   0.10706846  0.94131570  0.55339136
   0.82087615  0.18096088  0.90367193
   0.02893547  0.02600592  0.63739096
   0.79298730  0.31233831  0.80408710
   0.00246660  0.00604244  0.75125514
   0.50651071  0.54461077  0.53927657
   0.60599979  0.44311248  0.65039354
   0.60706844  0.55868430  0.94660864
   0.32087612  0.31903913  0.59632807
   0.52893542  0.47399408  0.86260904
   0.29298733  0.18766172  0.69591290
   0.50246663  0.49395757  0.74874486
   0.00651072  0.95538923  0.96072343
   0.10599980  0.05688750  0.84960646
   0.60706844  0.05868426  0.44660870
   0.32087612  0.81903913  0.09632809
   0.52893542  0.97399405  0.36260901
   0.29298733  0.68766172  0.19591285
   0.50246663  0.99395757  0.24874483
   0.00651072  0.45538926  0.46072343
   0.10599980  0.55688752  0.34960652
   0.31887991  0.16282948  0.50010226
   0.31887991  0.66282954  1.00010229
   0.81887991  0.83717046  0.49989771
   0.81887991  0.33717052 -0.00010229
   0.29343825  0.24873041  0.34536132
   0.29343825  0.74873041  0.84536135
   0.79343822  0.75126959  0.65463865
   0.79343822  0.25126960  0.15463866
BiTiFeO                                 
           1
     5.470926    0.000000    0.000000
     0.000000    5.465536   -0.008596
     0.000000   -0.001263   41.540410
   Bi   Ti   O    Fe
  20  12  60   4
Direct configuration=     6
   0.25359604  0.25029141  0.10736293
   0.23193928  0.27187183  0.21983648
   0.25359604  0.75029141  0.60736295
   0.23193928  0.77187186  0.71983644
   0.75359601  0.74970859  0.89263705
   0.73193924  0.72812814  0.78016356
   0.75359601  0.24970859  0.39263708
   0.73193924  0.22812815  0.28016350
   0.75610015  0.75022073  0.10759202
   0.73933457  0.72109985  0.21932688
   0.75610015  0.25022076  0.60759204
   0.73933457  0.22109983  0.71932691
   0.25610016  0.24977924  0.89240796
   0.23933458  0.27890018  0.78067309
   0.25610016  0.74977927  0.39240799
   0.23933458  0.77890015  0.28067312
   0.24414985  0.24413293  0.00089621
   0.24414985  0.74413293  0.50089621
   0.74414984  0.75586707  0.99910379
   0.74414984  0.25586707  0.49910373
   0.79676575  0.75068772  0.34605654
   0.79676575  0.25068772  0.84605654
   0.79249614  0.75242119  0.44951620
   0.79249614  0.25242119  0.94951617
   0.29249614  0.24757882  0.55048383
   0.29676578  0.24931228  0.65394346
   0.29676578  0.74931228  0.15394346
   0.29249614  0.74757881  0.05048381
   0.29098160  0.24690037  0.44943276
   0.29098160  0.74690037  0.94943276
   0.79098160  0.75309963  0.55056724
   0.79098160  0.25309963  0.05056724
   0.60234093  0.55428371  0.05429770
   0.31770884  0.31872162  0.40460993
   0.52672486  0.47400347  0.13735967
   0.29492717  0.18265749  0.30278885
   0.50262949  0.49657049  0.25129649
   0.01136449  0.96008683  0.03828163
   0.10426916  0.05151120  0.14965392
   0.60234093  0.05428371  0.55429768
   0.31770884  0.81872162  0.90460993
   0.52672486  0.97400350  0.63735966
   0.29492717  0.68265746  0.80278885
   0.50262949  0.99657052  0.75129652
   0.01136449  0.46008686  0.53828162
   0.10426916  0.55151126  0.64965395
   0.10234096  0.44571626  0.94570232
   0.81770884  0.68127838  0.59539007
   0.02672484  0.52599650  0.86264034
   0.79492723  0.81734254  0.69721115
   0.00262951  0.50342948  0.74870348
   0.51136449  0.03991315  0.96171838
   0.60426918  0.94848874  0.85034605
   0.10234096  0.94571629  0.44570229
   0.81770884  0.18127838  0.09539008
   0.02672484  0.02599652  0.36264034
   0.79492723  0.31734254  0.19721115
   0.00262951  0.00342951  0.24870350
   0.51136449  0.53991317  0.46171835
   0.60426918  0.44848880  0.35034608
   0.10639232  0.44345007  0.05326729
   0.81864052  0.68216370  0.40405922
   0.02885187  0.52550589  0.13749501
   0.79213212  0.81143085  0.30408300
   0.00246247  0.50637294  0.25129674
   0.50759449  0.04283537  0.03912500
   0.60569278  0.94403222  0.15008728
   0.10639232  0.94345004  0.55326733
   0.81864052  0.18216372  0.90405925
   0.02885187  0.02550587  0.63749498
   0.79213212  0.31143088  0.80408297
   0.00246247  0.00637295  0.75129674
   0.50759449  0.54283538  0.53912498
   0.60569278  0.44403222  0.65008731
   0.60639231  0.55654996  0.94673267
   0.31864049  0.31783630  0.59594075
   0.52885181  0.47449414  0.86250502
   0.29213215  0.18856915  0.69591703
   0.50246251  0.49362706  0.74870326
   0.00759450  0.95716462  0.96087502
   0.10569279  0.05596776  0.84991269
   0.60639231  0.05654992  0.44673273
   0.31864049  0.81783630  0.09594077
   0.52885181  0.97449411  0.36250499
   0.29213215  0.68856915  0.19591698
   0.50246251  0.99362706  0.24870323
   0.00759450  0.45716465  0.46087502
   0.10569279  0.55596778  0.34991275
   0.31962984  0.16486096  0.50016280
   0.31962984  0.66486102  1.00016283
   0.81962984  0.83513898  0.49983717
   0.81962984  0.33513904 -0.00016283
   0.29327509  0.24876476  0.34517631
   0.29327509  0.74876476  0.84517634
   0.79327506  0.75123524  0.65482366
   0.79327506  0.25123526  0.15482368
BiTiFeO                                 
           1
     5.482215    0.000000    0.000000
     0.000000    5.476082   -0.004906
     0.000000    0.026587   41.356912
   Bi   Ti   O    Fe
  20  12  60   4
Direct configuration=     7
   0.25279800  0.25030965  0.10707982
   0.22884732  0.27009982  0.21999519
   0.25279800  0.75030965  0.60707984
   0.22884732  0.77009985  0.71999515
   0.75279797  0.74969035  0.89292016
   0.72884728  0.72990015  0.78000485
   0.75279797  0.24969035  0.39292019
   0.72884728  0.22990016  0.28000479
   0.75713622  0.74979313  0.10723004
   0.74202490  0.71903377  0.21931776
   0.75713622  0.24979316  0.60723006
   0.74202490  0.21903376  0.71931779
   0.25713624  0.25020684  0.89276994
   0.24202491  0.28096626  0.78068221
   0.25713624  0.75020687  0.39276997
   0.24202491  0.78096623  0.28068224
   0.24516646  0.24567723  0.00064501
   0.24516646  0.74567723  0.50064501
   0.74516644  0.75432277  0.99935499
   0.74516644  0.25432277  0.49935493
   0.79730114  0.74980839  0.34725092
   0.79730114  0.24980839  0.84725092
   0.79370479  0.75116232  0.45014345
   0.79370479  0.25116232  0.95014342
   0.29370479  0.24883769  0.54985658
   0.29730117  0.25019161  0.65274908
   0.29730117  0.75019161  0.15274908
   0.29370479  0.74883768  0.04985657
   0.29107192  0.24802920  0.45020950
   0.29107192  0.74802920  0.95020950
   0.79107192  0.75197080  0.54979050
   0.79107192  0.25197080  0.04979050
   0.60414542  0.55327569  0.05368509
   0.31676824  0.31823672  0.40466311
   0.52734542  0.47430592  0.13777541
   0.29741727  0.18197261  0.30228974
   0.50206465  0.49720593  0.25110983
   0.01259572  0.96172803  0.03834641
   0.10162734  0.04968651  0.14932579
   0.60414542  0.05327569  0.55368507
   0.31676824  0.81823672  0.90466311
   0.52734542  0.97430595  0.63777540
   0.29741727  0.68197258  0.80228974
   0.50206465  0.99720596  0.75110986
   0.01259572  0.46172806  0.53834640
   0.10162734  0.54968656  0.64932582
   0.10414545  0.44672428  0.94631493
   0.81676824  0.68176328  0.59533689
   0.02734539  0.52569405  0.86222460
   0.79741733  0.81802742  0.69771026
   0.00206466  0.50279404  0.74889014
   0.51259572  0.03827194  0.96165360
   0.60162736  0.95031344  0.85067418
   0.10414545  0.94672431  0.44631490
   0.81676824  0.18176328  0.09533691
   0.02734539  0.02569407  0.36222460
   0.79741733  0.31802742  0.19771026
   0.00206466  0.00279407  0.24889016
   0.51259572  0.53827197  0.46165357
   0.60162736  0.45031350  0.35067421
   0.10376312  0.44491142  0.05313479
   0.81477031  0.68338678  0.40411416
   0.02898543  0.52497598  0.13786770
   0.79003882  0.81063612  0.30301838
   0.00260052  0.50703601  0.25139517
   0.51152566  0.04092724  0.03887434
   0.60412620  0.94663571  0.14959339
   0.10376312  0.94491139  0.55313483
   0.81477031  0.18338679  0.90411419
   0.02898543  0.02497596  0.63786767
   0.79003882  0.31063615  0.80301835
   0.00260052  0.00703601  0.75139517
   0.51152566  0.54092725  0.53887431
   0.60412620  0.44663571  0.64959342
   0.60376311  0.55508861  0.94686517
   0.31477028  0.31661322  0.59588581
   0.52898538  0.47502405  0.86213233
   0.29003885  0.18936388  0.69698165
   0.50260056  0.49296399  0.74860483
   0.01152566  0.95907275  0.96112569
   0.10412621  0.05336426  0.85040658
   0.60376311  0.05508857  0.44686523
   0.31477028  0.81661322  0.09588582
   0.52898538  0.97502402  0.36213230
   0.29003885  0.68936388  0.19698160
   0.50260056  0.99296399  0.24860480
   0.01152566  0.45907278  0.46112569
   0.10412621  0.55336429  0.35040664
   0.32117780  0.16830566  0.50008382
   0.32117780  0.66830572  1.00008385
   0.82117780  0.83169428  0.49991615
   0.82117780  0.33169434 -0.00008385
   0.29299716  0.24812699  0.34495677
   0.29299716  0.74812699  0.84495680
   0.79299713  0.75187301  0.65504320
   0.79299713  0.25187302  0.15504321
BiTiFeO                                 
           1
     5.484888    0.000000    0.000000
     0.000000    5.478721   -0.003669
     0.000000    0.035960   41.375403
   Bi   Ti   O    Fe
  20  12  60   4
Direct configuration=     8
   0.25270862  0.25022540  0.10724945
   0.22976669  0.27057262  0.21993494
   0.25270862  0.75022540  0.60724946
   0.22976669  0.77057265  0.71993490
   0.75270859  0.74977460  0.89275054
   0.72976664  0.72942735  0.78006510
   0.75270859  0.24977460  0.39275056
   0.72976664  0.22942736  0.28006504
   0.75704652  0.75004694  0.10742243
   0.74128155  0.71982965  0.21933228
   0.75704652  0.25004697  0.60742245
   0.74128155  0.21982963  0.71933231
   0.25704653  0.24995303  0.89257755
   0.24128157  0.28017038  0.78066769
   0.25704653  0.74995306  0.39257758
   0.24128157  0.78017035  0.28066772
   0.24517841  0.24531397  0.00069558
   0.24517841  0.74531397  0.50069558
   0.74517840  0.75468603  0.99930442
   0.74517840  0.25468603  0.49930436
   0.79703637  0.75043778  0.34646050
   0.79703637  0.25043778  0.84646050
   0.79326420  0.75183926  0.44974442
   0.79326420  0.25183926  0.94974439
   0.29326420  0.24816076  0.55025561
   0.29703640  0.24956222  0.65353950
   0.29703640  0.74956222  0.15353950
   0.29326420  0.74816074  0.05025559
   0.29169273  0.24777536  0.44970075
   0.29169273  0.74777536  0.94970075
   0.79169273  0.75222464  0.55029925
   0.79169273  0.25222464  0.05029925
   0.60328727  0.55394130  0.05372823
   0.31689504  0.31812307  0.40489282
   0.52715003  0.47413581  0.13762459
   0.29692958  0.18253631  0.30247531
   0.50214830  0.49694499  0.25113428
   0.01261331  0.96117478  0.03826495
   0.10218340  0.05035459  0.14929312
   0.60328727  0.05394130  0.55372821
   0.31689504  0.81812307  0.90489282
   0.52715003  0.97413584  0.63762458
   0.29692958  0.68253628  0.80247531
   0.50214830  0.99694502  0.75113431
   0.01261331  0.46117481  0.53826494
   0.10218340  0.55035465  0.64929315
   0.10328730  0.44605867  0.94627179
   0.81689504  0.68187693  0.59510718
   0.02715000  0.52586416  0.86237542
   0.79692964  0.81746372  0.69752469
   0.00214832  0.50305498  0.74886569
   0.51261331  0.03882520  0.96173506
   0.60218342  0.94964535  0.85070685
   0.10328730  0.94605870  0.44627176
   0.81689504  0.18187693  0.09510720
   0.02715000  0.02586418  0.36237542
   0.79692964  0.31746372  0.19752469
   0.00214832  0.00305501  0.24886571
   0.51261331  0.53882522  0.46173503
   0.60218342  0.44964541  0.35070688
   0.10482822  0.44503727  0.05307147
   0.81560993  0.68347440  0.40430547
   0.02862190  0.52504082  0.13772204
   0.79051470  0.81018089  0.30365780
   0.00257261  0.50675425  0.25138072
   0.51024733  0.04096114  0.03885946
   0.60455563  0.94601084  0.14960010
   0.10482822  0.94503724  0.55307151