BiTiFeO                                 
           1
     5.482290   -0.001382   -0.002482
    -0.001385    5.474775    0.000077
    -0.018512    0.062734   40.493969
   Bi   Ti   O    Fe
  20  12  60   4
Direct configuration=     1
   0.25163469  0.24552768  0.10456018
   0.23768441  0.27533320  0.21951799
   0.25163469  0.74552768  0.60456020
   0.23768441  0.77533323  0.71951795
   0.75163466  0.75447232  0.89543980
   0.73768437  0.72466677  0.78048205
   0.75163466  0.25447232  0.39543983
   0.73768437  0.22466679  0.28048199
   0.74778056  0.75425547  0.10488448
   0.73468602  0.72707325  0.21940872
   0.74778056  0.25425550  0.60488451
   0.73468602  0.22707324  0.71940875
   0.24778058  0.24574450  0.89511549
   0.23468603  0.27292678  0.78059125
   0.24778058  0.74574453  0.39511553
   0.23468603  0.77292675  0.28059128
   0.24248166  0.24192810  0.00106251
   0.24248166  0.74192810  0.50106251
   0.74248165  0.75807190  0.99893749
   0.74248165  0.25807190  0.49893743
   0.79474807  0.74971396  0.34751427
   0.79474807  0.24971396  0.84751427
   0.79556835  0.74996662  0.65309596
   0.79556835  0.24996664  0.15309598
   0.79018825  0.75150693  0.45036468
   0.79018825  0.25150693  0.95036465
   0.29018825  0.24849309  0.54963535
   0.29474810  0.25028604  0.65248573
   0.29474810  0.75028604  0.15248573
   0.29018825  0.74849307  0.04963534
   0.29145211  0.24496144  0.45021892
   0.29145211  0.74496144  0.95021892
   0.60797232  0.55333757  0.05623510
   0.32074291  0.32244712  0.40269166
   0.52769464  0.47232899  0.13806446
   0.29197162  0.18621907  0.30358261
   0.50278539  0.49499974  0.25136027
   0.00366211  0.96418035  0.03809405
   0.10417966  0.05360783  0.15095773
   0.60797232  0.05333758  0.55623508
   0.32074291  0.82244712  0.90269166
   0.52769464  0.97232902  0.63806444
   0.29197162  0.68621904  0.80358261
   0.50278539  0.99499977  0.75136030
   0.00366211  0.46418038  0.53809404
   0.10417966  0.55360788  0.65095776
   0.10797235  0.44666240  0.94376492
   0.82074291  0.67755288  0.59730834
   0.02769462  0.52767098  0.86193556
   0.79197168  0.81378096  0.69641739
   0.00278540  0.50500023  0.74863970
   0.50366211  0.03581963  0.96190596
   0.60417968  0.94639212  0.84904224
   0.10797235  0.94666243  0.44376490
   0.82074291  0.17755288  0.09730835
   0.02769462  0.02767100  0.36193556
   0.79197168  0.31378096  0.19641739
   0.00278540  0.00500026  0.24863972
   0.50366211  0.53581965  0.46190593
   0.60417968  0.44639218  0.34904227
   0.10746492  0.42657372  0.05429961
   0.82924741  0.67528647  0.40033671
   0.02685624  0.52419931  0.13827106
   0.79467112  0.81472349  0.30391791
   0.00275614  0.50483209  0.25127208
   0.50846183  0.05460011  0.03958693
   0.60779965  0.94555801  0.15167758
   0.10746492  0.92657369  0.55429965
   0.82924741  0.17528649  0.90033674
   0.02685624  0.02419928  0.63827103
   0.79467112  0.31472352  0.80391788
   0.00275614  0.00483209  0.75127208
   0.50846183  0.55460012  0.53958690
   0.60779965  0.44555801  0.65167761
   0.60746491  0.57342631  0.94570035
   0.32924739  0.32471353  0.59966326
   0.52685618  0.47580072  0.86172897
   0.29467115  0.18527651  0.69608212
   0.50275618  0.49516791  0.74872792
   0.00846184  0.94539988  0.96041310
   0.10779966  0.05444197  0.84832239
   0.60746491  0.07342626  0.44570041
   0.32924739  0.82471353  0.09966327
   0.52685618  0.97580069  0.36172894
   0.29467115  0.68527651  0.19608207
   0.50275618  0.99516791  0.24872789
   0.00846184  0.44539991  0.46041310
   0.10779966  0.55444199  0.34832245
   0.31750971  0.15670252  0.49889919
   0.31750971  0.65670258  0.99889922
   0.81750971  0.84329742  0.50110078
   0.81750971  0.34329748  0.00110078
   0.29556838  0.25003338  0.34690401
   0.29556838  0.75003338  0.84690404
   0.79145211  0.75503856  0.54978108
   0.79145211  0.25503856  0.04978108
BiTiFeO                                 
           1
     5.500760   -0.001306   -0.000913
    -0.001310    5.495653   -0.003980
    -0.006790    0.032962   40.947536
   Bi   Ti   O    Fe
  20  12  60   4
Direct configuration=     2
   0.24946106  0.24702339  0.10527101
   0.23805727  0.27362825  0.22047195
   0.24946106  0.74702339  0.60527102
   0.23805727  0.77362828  0.72047190
   0.75229053  0.75087032  0.89210909
   0.73485708  0.72441372  0.78136343
   0.75229053  0.25087032  0.39210912
   0.73485708  0.22441373  0.28136337
   0.75082279  0.75473890  0.10550910
   0.73561687  0.72850093  0.22023304
   0.75082279  0.25473893  0.60550912
   0.73561687  0.22850092  0.72023307
   0.25213520  0.24804051  0.89183819
   0.23568291  0.27712809  0.78155619
   0.25213520  0.74804054  0.39183822
   0.23568291  0.77712806  0.28155622
   0.24264497  0.24119533  0.00204909
   0.24264497  0.74119533  0.50204909
   0.74448790  0.75767610  0.99983059
   0.74448790  0.25767610  0.49983053
   0.79613063  0.74940106  0.34619564
   0.79613063  0.24940106  0.84619564
   0.79554632  0.75030632  0.65378583
   0.79554632  0.25030634  0.15378584
   0.79150236  0.75460754  0.44910596
   0.79150236  0.25460754  0.94910593
   0.29298357  0.24533625  0.55055108
   0.29500981  0.24868560  0.65412901
   0.29500981  0.74868560  0.15412901
   0.29298357  0.74533623  0.05055107
   0.29084823  0.24616024  0.44790516
   0.29084823  0.74616024  0.94790516
   0.59857404  0.56143336  0.05544587
   0.31958664  0.31974994  0.40492581
   0.52612728  0.47335933  0.13777394
   0.29330925  0.18383879  0.30313097
   0.50322473  0.49543190  0.25081676
   0.01306850  0.95555312  0.03801498
   0.10563099  0.05357301  0.15054821
   0.59857404  0.06143337  0.55544584
   0.31958664  0.81974994  0.90492581
   0.52612728  0.97335936  0.63777392
   0.29330925  0.68383876  0.80313097
   0.50322473  0.99543193  0.75081679
   0.01306850  0.45555315  0.53801497
   0.10563099  0.55357306  0.65054824
   0.09876322  0.44271243  0.94486134
   0.82222015  0.67701573  0.59695513
   0.02527137  0.52683756  0.86312958
   0.79161197  0.81205211  0.69563483
   0.00251118  0.50433814  0.74808849
   0.51155211  0.04248066  0.96178206
   0.60793858  0.94642274  0.85012139
   0.09876322  0.94271246  0.44486131
   0.82222015  0.17701573  0.09695515
   0.02527137  0.02683758  0.36312958
   0.79161197  0.31205211  0.19563483
   0.00251118  0.00433817  0.24808851
   0.51155211  0.54248069  0.46178203
   0.60793858  0.44642280  0.35012142
   0.11472325  0.44106259  0.05372320
   0.82471051  0.68006756  0.40385385
   0.02750657  0.52515386  0.13785677
   0.79443580  0.81418123  0.30398221
   0.00175455  0.50487261  0.25067236
   0.50062147  0.04379608  0.03920831
   0.60690901  0.94388348  0.15120068
   0.11472325  0.94106256  0.55372324
   0.82471051  0.18006758  0.90385388
   0.02750657  0.02515383  0.63785674
   0.79443580  0.31418126  0.80398218
   0.00175455  0.00487262  0.75067236
   0.50062147  0.54379609  0.53920828
   0.60690901  0.44388348  0.65120070
   0.61232683  0.55847682  0.94656281
   0.32546263  0.32140965  0.59732569
   0.52755095  0.47394436  0.86292429
   0.29402070  0.18734605  0.69510279
   0.50327189  0.49429603  0.74818591
   0.00191683  0.95547970  0.96055831
   0.10774622  0.05916560  0.84950605
   0.61232683  0.05847677  0.44656287
   0.32546263  0.82140965  0.09732571
   0.52755095  0.97394433  0.36292426
   0.29402070  0.68734605  0.19510274
   0.50327189  0.99429603  0.24818588
   0.00191683  0.45547973  0.46055831
   0.10774622  0.55916562  0.34950611
   0.31749557  0.15956325  0.50011256
   0.31749557  0.65956331  1.00011259
   0.81790341  0.84099087  0.49934265
   0.81790341  0.34099093 -0.00065735
   0.29460700  0.24930899  0.34583496
   0.29460700  0.74930899  0.84583499
   0.78956897  0.75448972  0.55091282
   0.78956897  0.25448972  0.05091281
BiTiFeO                                 
           1
     5.497894   -0.001468    0.002986
    -0.001476    5.491334   -0.005804
     0.022232    0.019318   40.908386
   Bi   Ti   O    Fe
  20  12  60   4
Direct configuration=     3
   0.24967500  0.24701548  0.10491921
   0.23820167  0.27308051  0.22021593
   0.24967500  0.74701548  0.60491922
   0.23820167  0.77308054  0.72021588
   0.75352435  0.75048154  0.89280434
   0.73430745  0.72520527  0.78133080
   0.75352435  0.25048154  0.39280437
   0.73430745  0.22520529  0.28133074
   0.75104594  0.75471805  0.10515857
   0.73660716  0.72876047  0.21992176
   0.75104594  0.25471808  0.60515859
   0.73660716  0.22876045  0.71992179
   0.25290809  0.24872063  0.89254205
   0.23595997  0.27744216  0.78154929
   0.25290809  0.74872066  0.39254208
   0.23595997  0.77744213  0.28154932
   0.24264877  0.24122995  0.00200492
   0.24264877  0.74122995  0.50200492
   0.74453940  0.75762590  0.99989244
   0.74453940  0.25762590  0.49989238
   0.79598304  0.74910792  0.34713327
   0.79598304  0.24910792  0.84713327
   0.79535427  0.74939486  0.65277296
   0.79535427  0.24939488  0.15277297
   0.79131989  0.75383271  0.44980377
   0.79131989  0.25383271  0.94980374
   0.29290281  0.24637180  0.55014618
   0.29525171  0.25025743  0.65263815
   0.29525171  0.75025743  0.15263815
   0.29290281  0.74637179  0.05014617
   0.28991377  0.24535943  0.44924685
   0.28991377  0.74535943  0.94924685
   0.60051183  0.56035644  0.05546092
   0.31968192  0.32073763  0.40392882
   0.52627826  0.47333661  0.13795010
   0.29360424  0.18303715  0.30272020
   0.50324832  0.49525763  0.25101315
   0.01262895  0.95608031  0.03817424
   0.10530462  0.05322853  0.15073374
   0.60051183  0.06035644  0.55546090
   0.31968192  0.82073763  0.90392882
   0.52627826  0.97333664  0.63795009
   0.29360424  0.68303712  0.80272020
   0.50324832  0.99525766  0.75101318
   0.01262895  0.45608034  0.53817423
   0.10530462  0.55322859  0.65073377
   0.10055459  0.44398241  0.94473069
   0.82255042  0.67710767  0.59716651
   0.02578699  0.52675763  0.86283744
   0.79139685  0.81309384  0.69650658
   0.00228205  0.50388159  0.74823068
   0.51093974  0.04176958  0.96161460
   0.60656332  0.94747111  0.84980482
   0.10055459  0.94398244  0.44473066
   0.82255042  0.17710767  0.09716652
   0.02578699  0.02675765  0.36283744
   0.79139685  0.31309384  0.19650658
   0.00228205  0.00388162  0.24823069
   0.51093974  0.54176960  0.46161457
   0.60656332  0.44747117  0.34980485
   0.11304417  0.44036327  0.05386757
   0.82405666  0.67953247  0.40326562
   0.02755040  0.52513493  0.13801276
   0.79417492  0.81488467  0.30322864
   0.00159254  0.50522618  0.25085781
   0.50210414  0.04391656  0.03930381
   0.60656777  0.94421348  0.15133798
   0.11304417  0.94036324  0.55386761
   0.82405666  0.17953248  0.90326565
   0.02755040  0.02513490  0.63801273
   0.79417492  0.31488470  0.80322861
   0.00159254  0.00522619  0.75085781
   0.50210414  0.54391656  0.53930378
   0.60656777  0.44421348  0.65133800
   0.61055460  0.55928309  0.94633017
   0.32478377  0.32159510  0.59755394
   0.52804529  0.47403906  0.86262686
   0.29364033  0.18559971  0.69648720
   0.50313714  0.49446601  0.74832323
   0.00356415  0.95499260  0.96045224
   0.10698270  0.05768428  0.84921113
   0.61055460  0.05928305  0.44633023
   0.32478377  0.82159510  0.09755396
   0.52804529  0.97403903  0.36262683
   0.29364033  0.68559971  0.19648716
   0.50313714  0.99446601  0.24832320
   0.00356415  0.45499263  0.46045224
   0.10698270  0.55768430  0.34921119
   0.31774293  0.16037405  0.50004458
   0.31774293  0.66037411  1.00004461
   0.81814852  0.84020946  0.49942485
   0.81814852  0.34020952 -0.00057515
   0.29412275  0.24943035  0.34612219
   0.29412275  0.74943035  0.84612222
   0.78871152  0.75435231  0.55059635
   0.78871152  0.25435231  0.05059634
BiTiFeO                                 
           1
     5.491882   -0.001745    0.003451
    -0.001753    5.484601   -0.004568
     0.025633    0.028529   40.919660
   Bi   Ti   O    Fe
  20  12  60   4
Direct configuration=     4
   0.24922489  0.24749828  0.10456742
   0.23826173  0.27302771  0.22017963
   0.24922489  0.74749828  0.60456743
   0.23826173  0.77302774  0.72017959
   0.75406415  0.75022326  0.89340199
   0.73266569  0.72636388  0.78100325
   0.75406415  0.25022326  0.39340202
   0.73266569  0.22636390  0.28100319
   0.75145105  0.75432016  0.10480386
   0.73816300  0.72849914  0.21981879
   0.75145105  0.25432018  0.60480388
   0.73816300  0.22849913  0.71981882
   0.25420249  0.24927135  0.89316311
   0.23579578  0.27881604  0.78125495
   0.25420249  0.74927138  0.39316314
   0.23579578  0.77881601  0.28125498
   0.24250553  0.24115786  0.00192124
   0.24250553  0.74115786  0.50192124
   0.74507525  0.75739020  0.99994116
   0.74507525  0.25739020  0.49994110
   0.79602296  0.75058376  0.34681603
   0.79602296  0.25058376  0.84681603
   0.79468403  0.75090259  0.65351529
   0.79468403  0.25090261  0.15351531
   0.79157006  0.75281083  0.45020308
   0.79157006  0.25281083  0.95020305
   0.29323397  0.24754870  0.54962667
   0.29568827  0.24836992  0.65359595
   0.29568827  0.74836992  0.15359595
   0.29323397  0.74754868  0.04962666
   0.28976622  0.24579587  0.44992376
   0.28976622  0.74579587  0.94992376
   0.60378220  0.55845158  0.05529286
   0.31905165  0.32016642  0.40375480
   0.52628025  0.47337637  0.13791602
   0.29467655  0.18227428  0.30268642
   0.50363064  0.49487192  0.25129404
   0.01223259  0.95709492  0.03849172
   0.10513685  0.05309540  0.15058792
   0.60378220  0.05845159  0.55529284
   0.31905165  0.82016642  0.90375480
   0.52628025  0.97337640  0.63791601
   0.29467655  0.68227425  0.80268642
   0.50363064  0.99487195  0.75129407
   0.01223259  0.45709495  0.53849171
   0.10513685  0.55309546  0.65058795
   0.10337942  0.44682413  0.94486307
   0.82342988  0.67751101  0.59728515
   0.02646267  0.52638170  0.86250930
   0.79118451  0.81133282  0.69571066
   0.00202496  0.50320350  0.74856334
   0.50978493  0.04022029  0.96148254
   0.60507879  0.94847960  0.84970192
   0.10337942  0.94682416  0.44486304
   0.82342988  0.17751101  0.09728516
   0.02646267  0.02638172  0.36250930
   0.79118451  0.31133282  0.19571066
   0.00202496  0.00320353  0.24856335
   0.50978493  0.54022031  0.46148251
   0.60507879  0.44847966  0.34970195
   0.10966597  0.44048897  0.05404655
   0.82178090  0.68007087  0.40313927
   0.02741770  0.52526527  0.13792571
   0.79386268  0.81355517  0.30362117
   0.00154921  0.50565517  0.25113262
   0.50536161  0.04338206  0.03943916
   0.60612168  0.94435528  0.15106680
   0.10966597  0.94048894  0.55404659
   0.82178090  0.18007089  0.90313930
   0.02741770  0.02526525  0.63792568
   0.79386268  0.31355520  0.80362114
   0.00154921  0.00565518  0.75113262
   0.50536161  0.54338207  0.53943913
   0.60612168  0.44435528  0.65106683
   0.60668047  0.55925899  0.94618073
   0.32283547  0.32133349  0.59753352
   0.52904453  0.47406423  0.86231010
   0.29299089  0.18734379  0.69575216
   0.50326290  0.49480542  0.74862034
   0.00698472  0.95448603  0.96051078
   0.10600367  0.05642226  0.84918290
   0.60668047  0.05925894  0.44618079
   0.32283547  0.82133349  0.09753353
   0.52904453  0.97406420  0.36231007
   0.29299089  0.68734379  0.19575212
   0.50326290  0.99480542  0.24862031
   0.00698472  0.45448606  0.46051078
   0.10600367  0.55642229  0.34918296
   0.31843828  0.16247934  0.50006375
   0.31843828  0.66247940  1.00006378
   0.81912732  0.83831571  0.49965289
   0.81912732  0.33831577 -0.00034711
   0.29324747  0.24877611  0.34577637
   0.29324747  0.74877611  0.84577640
   0.78711328  0.75407815  0.55016914
   0.78711328  0.25407815  0.05016913
BiTiFeO                                 
           1
     5.497948   -0.001931    0.003836
    -0.001939    5.491295   -0.005035
     0.028483    0.025136   40.995207
   Bi   Ti   O    Fe
  20  12  60   4
Direct configuration=     5
   0.24847194  0.24730572  0.10460557
   0.23824820  0.27283270  0.22034093
   0.24847194  0.74730572  0.60460558
   0.23824820  0.77283273  0.72034088
   0.75340847  0.75048361  0.89321378
   0.73199875  0.72689819  0.78116596
   0.75340847  0.25048361  0.39321381
   0.73199875  0.22689821  0.28116590
   0.75153106  0.75455865  0.10483928
   0.73876833  0.72857758  0.21996874
   0.75153106  0.25455868  0.60483930
   0.73876833  0.22857756  0.71996877
   0.25452391  0.24898243  0.89298227
   0.23584599  0.27936429  0.78142702
   0.25452391  0.74898246  0.39298230
   0.23584599  0.77936426  0.28142705
   0.24253241  0.24119625  0.00200798
   0.24253241  0.74119625  0.50200798
   0.74562291  0.75717731  1.00005421
   0.74562291  0.25717731  0.50005415
   0.79634320  0.74994323  0.34685512
   0.79634320  0.24994323  0.84685512
   0.79490992  0.74985300  0.65286236
   0.79490992  0.24985302  0.15286237
   0.79156131  0.75315701  0.44994815
   0.79156131  0.25315701  0.94994812
   0.29338676  0.24692870  0.54991459
   0.29575669  0.24924235  0.65310825
   0.29575669  0.74924235  0.15310825
   0.29338676  0.74692869  0.04991458
   0.29069980  0.24647713  0.44946324
   0.29069980  0.74647713  0.94946324
   0.60362746  0.55862391  0.05506571
   0.31869499  0.31951927  0.40417679
   0.52616002  0.47345124  0.13793069
   0.29527704  0.18168371  0.30251429
   0.50371291  0.49510091  0.25118580
   0.01249277  0.95724791  0.03849599
   0.10522207  0.05311817  0.15055270
   0.60362746  0.05862392  0.55506568
   0.31869499  0.81951927  0.90417679
   0.52616002  0.97345127  0.63793067
   0.29527704  0.68168368  0.80251429
   0.50371291  0.99510094  0.75118583
   0.01249277  0.45724794  0.53849599
   0.10522207  0.55311823  0.65055273
   0.10267367  0.44665177  0.94505943
   0.82376660  0.67763253  0.59714929
   0.02660534  0.52630656  0.86249560
   0.79093896  0.81179604  0.69620296
   0.00185937  0.50326448  0.74848661
   0.51033279  0.04032121  0.96151100
   0.60500783  0.94829763  0.84981939
   0.10267367  0.94665180  0.44505940
   0.82376660  0.17763253  0.09714930
   0.02660534  0.02630658  0.36249560
   0.79093896  0.31179604  0.19620296
   0.00185937  0.00326451  0.24848662
   0.51033279  0.54032124  0.46151097
   0.60500783  0.44829769  0.34981942
   0.10934146  0.44170839  0.05395232
   0.82088035  0.68089530  0.40353855
   0.02730572  0.52543694  0.13791912
   0.79372798  0.81346140  0.30351675
   0.00140639  0.50549851  0.25103743
   0.50590455  0.04258782  0.03935766
   0.60602398  0.94428916  0.15097806
   0.10934146  0.94170836  0.55395236
   0.82088035  0.18089532  0.90353858
   0.02730572  0.02543691  0.63791909
   0.79372798  0.31346143  0.80351672
   0.00140639  0.00549852  0.75103743
   0.50590455  0.54258782  0.53935764
   0.60602398  0.44428916  0.65097808
   0.60644044  0.55765411  0.94627186
   0.32216800  0.32082504  0.59719997
   0.52896054  0.47426291  0.86231671
   0.29255254  0.18696622  0.69619500
   0.50341581  0.49454161  0.74850807
   0.00714899  0.95551993  0.96063138
   0.10602319  0.05654601  0.84933495
   0.60644044  0.05765406  0.44627192
   0.32216800  0.82082504  0.09719998
   0.52896054  0.97426288  0.36231668
   0.29255254  0.68696622  0.19619495
   0.50341581  0.99454161  0.24850804
   0.00714899  0.45551996  0.46063138
   0.10602319  0.55654603  0.34933501
   0.31868320  0.16318639  0.50010994
   0.31868320  0.66318645  1.00010997
   0.81950042  0.83752951  0.49962103
   0.81950042  0.33752957 -0.00037897
   0.29326086  0.24908740  0.34578197
   0.29326086  0.74908740  0.84578200
   0.78727379  0.75400971  0.55032549
   0.78727379  0.25400971  0.05032548
BiTiFeO                                 
           1
     5.491070   -0.002017    0.004317
    -0.002026    5.483988   -0.004565
     0.032056    0.028580   40.959809
   Bi   Ti   O    Fe
  20  12  60   4
Direct configuration=     6
   0.24790304  0.24746725  0.10441669
   0.23821753  0.27265231  0.22032257
   0.24790304  0.74746725  0.60441670
   0.23821753  0.77265234  0.72032253
   0.75325725  0.75028314  0.89326789
   0.73092125  0.72800629  0.78120078
   0.75325725  0.25028314  0.39326792
   0.73092125  0.22800630  0.28120072
   0.75196342  0.75433786  0.10464764
   0.74000731  0.72843600  0.21992380
   0.75196342  0.25433789  0.60464766
   0.74000731  0.22843599  0.71992383
   0.25518171  0.24936545  0.89306816
   0.23602520  0.27991156  0.78148082
   0.25518171  0.74936548  0.39306819
   0.23602520  0.77991153  0.28148085
   0.24256235  0.24145875  0.00199473
   0.24256235  0.74145875  0.50199473
   0.74629222  0.75677321  1.00018390
   0.74629222  0.25677321  0.50018384
   0.79655672  0.74987735  0.34692816
   0.79655672  0.24987735  0.84692816
   0.79468906  0.75042053  0.65310935
   0.79468906  0.25042055  0.15310936
   0.79182782  0.75308358  0.45016051
   0.79182782  0.25308358  0.95016048
   0.29340353  0.24676338  0.54974718
   0.29571857  0.24880922  0.65326894
   0.29571857  0.74880922  0.15326894
   0.29340353  0.74676337  0.04974717
   0.29106906  0.24688233  0.44979093
   0.29106906  0.74688233  0.94979093
   0.60413629  0.55853958  0.05485673
   0.31831983  0.31941569  0.40407647
   0.52596122  0.47351590  0.13790034
   0.29622705  0.18130806  0.30238105
   0.50382238  0.49528230  0.25123889
   0.01287285  0.95769086  0.03863789
   0.10521284  0.05303287  0.15045013
   0.60413629  0.05853958  0.55485671
   0.31831983  0.81941569  0.90407647
   0.52596122  0.97351593  0.63790033
   0.29622705  0.68130803  0.80238105
   0.50382238  0.99528233  0.75123892
   0.01287285  0.45769089  0.53863788
   0.10521284  0.55303292  0.65045016
   0.10241518  0.44669377  0.94521405
   0.82426410  0.67784828  0.59719120
   0.02698604  0.52625868  0.86240916
   0.79071504  0.81086131  0.69590182
   0.00159220  0.50312407  0.74858483
   0.51093356  0.04016649  0.96147103
   0.60413666  0.94840377  0.84991971
   0.10241518  0.94669380  0.44521402
   0.82426410  0.17784828  0.09719122
   0.02698604  0.02625870  0.36240916
   0.79071504  0.31086131  0.19590182
   0.00159220  0.00312410  0.24858485
   0.51093356  0.54016651  0.46147100
   0.60413666  0.44840383  0.34991974
   0.10826587  0.44272276  0.05397408
   0.81946715  0.68150339  0.40361067
   0.02710492  0.52574765  0.13785461
   0.79341025  0.81293014  0.30339699
   0.00128242  0.50551788  0.25111923
   0.50725024  0.04157966  0.03935555
   0.60574770  0.94432433  0.15077265
   0.10826587  0.94272273  0.55397412
   0.81946715  0.18150340  0.90361070
   0.02710492  0.02574762  0.63785458
   0.79341025  0.31293016  0.80339696
   0.00128242  0.00551789  0.75111923
   0.50725024  0.54157967  0.53935552
   0.60574770  0.44432433  0.65077268
   0.60558969  0.55619090  0.94624968
   0.32105055  0.32032090  0.59708728
   0.52885053  0.47462363  0.86224612
   0.29184821  0.18765628  0.69612763
   0.50353935  0.49439598  0.74854672
   0.00807789  0.95672540  0.96073320
   0.10582580  0.05583133  0.84949003
   0.60558969  0.05619086  0.44624974
   0.32105055  0.82032090  0.09708729
   0.52885053  0.97462360  0.36224609
   0.29184821  0.68765628  0.19612759
   0.50353935  0.99439598  0.24854669
   0.00807789  0.45672543  0.46073320
   0.10582580  0.55583135  0.34949009
   0.31916114  0.16436846  0.50019428
   0.31916114  0.66436852  1.00019431
   0.82007870  0.83627291  0.49964641
   0.82007870  0.33627297 -0.00035359
   0.29309464  0.24894622  0.34564523
   0.29309464  0.74894622  0.84564526
   0.78716334  0.75367217  0.55020420
   0.78716334  0.25367217  0.05020420
BiTiFeO                                 
           1
     5.490539   -0.002058    0.004787
    -0.002068    5.483387   -0.004499
     0.035546    0.029090   40.985186
   Bi   Ti   O    Fe
  20  12  60   4
Direct configuration=     7
   0.24739439  0.24734519  0.10440051
   0.23820564  0.27260618  0.22039613
   0.24739439  0.74734519  0.60440053
   0.23820564  0.77260621  0.72039608
   0.75292261  0.75029915  0.89326859
   0.73032254  0.72827080  0.78120318
   0.75292261  0.25029915  0.39326862
   0.73032254  0.22827081  0.28120312
   0.75190805  0.75439164  0.10462647
   0.74046504  0.72848660  0.21999734
   0.75190805  0.25439167  0.60462649
   0.74046504  0.22848659  0.71999737
   0.25533226  0.24941391  0.89308927
   0.23598647  0.28031569  0.78148122
   0.25533226  0.74941394  0.39308930
   0.23598647  0.78031566  0.28148125
   0.24261488  0.24151435  0.00200187
   0.24261488  0.74151435  0.50200187
   0.74666867  0.75660374  1.00027756
   0.74666867  0.25660374  0.50027750
   0.79659139  0.74999262  0.34681622
   0.79659139  0.24999262  0.84681622
   0.79463987  0.75013767  0.65290972
   0.79463987  0.25013769  0.15290973
   0.79199666  0.75308812  0.45017170
   0.79199666  0.25308812  0.95017167
   0.29353987  0.24680647  0.54978617
   0.29579281  0.24889043  0.65322670
   0.29579281  0.74889043  0.15322670
   0.29353987  0.74680645  0.04978616
   0.29127973  0.24702281  0.44975568
   0.29127973  0.74702281  0.94975568
   0.60428614  0.55846755  0.05471980
   0.31818130  0.31925130  0.40419565
   0.52585383  0.47356183  0.13788246
   0.29679222  0.18122276  0.30235571
   0.50387790  0.49536042  0.25121189
   0.01311402  0.95794163  0.03866574
   0.10524651  0.05304251  0.15038984
   0.60428614  0.05846756  0.55471978
   0.31818130  0.81925130  0.90419565
   0.52585383  0.97356186  0.63788244
   0.29679222  0.68122273  0.80235571
   0.50387790  0.99536044  0.75121192
   0.01311402  0.45794166  0.53866573
   0.10524651  0.55304257  0.65038987
   0.10250730  0.44706298  0.94532274
   0.82454579  0.67793041  0.59713901
   0.02701616  0.52610471  0.86237032
   0.79057688  0.81077203  0.69600088
   0.00153267  0.50316553  0.74860781
   0.51113069  0.03987444  0.96148506
   0.60392524  0.94864991  0.84998450
   0.10250730  0.94706301  0.44532271
   0.82454579  0.17793041  0.09713902
   0.02701616  0.02610473  0.36237032
   0.79057688  0.31077203  0.19600088
   0.00153267  0.00316556  0.24860782
   0.51113069  0.53987446  0.46148503
   0.60392524  0.44864997  0.34998453
   0.10782381  0.44321276  0.05394499
   0.81886920  0.68177653  0.40367764
   0.02697804  0.52589746  0.13782281
   0.79332021  0.81242859  0.30351843
   0.00127766  0.50540965  0.25111254
   0.50782163  0.04108651  0.03931696
   0.60565168  0.94432648  0.15065835
   0.10782381  0.94321273  0.55394503
   0.81886920  0.18177655  0.90367767
   0.02697804  0.02589743  0.63782278
   0.79332021  0.31242862  0.80351840
   0.00127766  0.00540965  0.75111254
   0.50782163  0.54108652  0.53931693
   0.60565168  0.44432648  0.65065838
   0.60501232  0.55567881  0.94626916
   0.32060550  0.32005889  0.59696630
   0.52892668  0.47463600  0.86221568
   0.29145711  0.18784137  0.69615582
   0.50369077  0.49433884  0.74853402
   0.00874340  0.95713863  0.96081336
   0.10555953  0.05561931  0.84958496
   0.60501232  0.05567877  0.44626922
   0.32060550  0.82005889  0.09696631
   0.52892668  0.97463597  0.36221565
   0.29145711  0.68784137  0.19615578
   0.50369077  0.99433884  0.24853399
   0.00874340  0.45713866  0.46081336
   0.10555953  0.55561933  0.34958502
   0.31938930  0.16483154  0.50019691
   0.31938930  0.66483160  1.00019694
   0.82041478  0.83579857  0.49966948
   0.82041478  0.33579863 -0.00033052
   0.29303640  0.24884232  0.34558533
   0.29303640  0.74884232  0.84558536
   0.78717414  0.75348416  0.55021745
   0.78717414  0.25348416  0.05021745
BiTiFeO                                 
           1
     5.494522   -0.002001    0.005018
    -0.002010    5.487424   -0.004747
     0.037276    0.027269   40.999927
   Bi   Ti   O    Fe
  20  12  60   4
Direct configuration=     8
   0.24696430  0.24726361  0.10434330
   0.23819731  0.27249243  0.22042592
   0.24696430  0.74726361  0.60434332
   0.23819731  0.77249246  0.72042587
   0.75264046  0.75033370  0.89329175
   0.72965963  0.72870685  0.78123968
   0.75264046  0.25033370  0.39329178
   0.72965963  0.22870687  0.28123962
   0.75192893  0.75435281  0.10456401
   0.74110176  0.72855153  0.22002555
   0.75192893  0.25435284  0.60456403
   0.74110176  0.22855152  0.72002558
   0.25552306  0.24946599  0.89313290
   0.23603891  0.28064944  0.78151406
   0.25552306  0.74946602  0.39313293
   0.23603891  0.78064941  0.28151409
   0.24277186  0.24159432  0.00198762
   0.24277186  0.74159432  0.50198762
   0.74711299  0.75641093  1.00037988
   0.74711299  0.25641093  0.50037982
   0.79666101  0.74991136  0.34687188
   0.79666101  0.24991136  0.84687188
   0.79454300  0.75001422  0.65276756
   0.79454300  0.25001423  0.15276757
   0.79212625  0.75303836  0.45018247
   0.79212625  0.25303836  0.95018244
   0.29363689  0.24682615  0.54978739
   0.29581388  0.24895985  0.65313327
   0.29581388  0.74895985  0.15313327
   0.29363689  0.74682614  0.04978738
   0.29158180  0.24721432  0.44975927
   0.29158180  0.74721432  0.94975927
   0.60449947  0.55836390  0.05457302
   0.31802415  0.31911228  0.40428271
   0.52571880  0.47359241  0.13786167
   0.29747260  0.18111525  0.30226690
   0.50391087  0.49549446  0.25119770
   0.01336850  0.95829358  0.03871092
   0.10523702  0.05305686  0.15032533
   0.60449947  0.05836391  0.55457300
   0.31802415  0.81911228  0.90428271
   0.52571880  0.97359244  0.63786165
   0.29747260  0.68111523  0.80226690
   0.50391087  0.99549449  0.75119773
   0.01336850  0.45829361  0.53871092
   0.10523702  0.55305691  0.65032536
   0.10250081  0.44733442  0.94544692
   0.82481937  0.67804616  0.59711132
   0.02709474  0.52600390  0.86231358
   0.79041478  0.81053180  0.69605075
   0.00143313  0.50318221  0.74864364
   0.51144454  0.03959150  0.96150624
   0.60351899  0.94885834  0.85004304
   0.10250081  0.94733445  0.44544689
   0.82481937  0.17804616  0.09711133
   0.02709474  0.02600392  0.36231358
   0.79041478  0.31053180  0.19605075
   0.00143313  0.00318224  0.24864365
   0.51144454  0.53959152  0.46150621
   0.60351899  0.44885840  0.35004307
   0.10728639  0.44370338  0.05392407
   0.81819747  0.68209729  0.40374947
   0.02679390  0.52607329  0.13778645
   0.79316360  0.81203576  0.30347931
   0.00124906  0.50533098  0.25112656
   0.50853207  0.04053918  0.03928336
   0.60552156  0.94435351  0.15052842
   0.10728639  0.94370335  0.55392411