BiTiFeO                                 
           1
     5.483445    0.001091    0.006464
     0.001094    5.477391    0.001008
     0.048178    0.069689   40.590117
   Bi   Ti   O    Fe
  20  12  60   4
Direct configuration=     1
   0.25163469  0.24552768  0.10456018
   0.23768441  0.27533320  0.21951799
   0.25163469  0.74552768  0.60456020
   0.23768441  0.77533323  0.71951795
   0.75163466  0.75447232  0.89543980
   0.73768437  0.72466677  0.78048205
   0.75163466  0.25447232  0.39543983
   0.73768437  0.22466679  0.28048199
   0.74778056  0.75425547  0.10488448
   0.73468602  0.72707325  0.21940872
   0.74778056  0.25425550  0.60488451
   0.73468602  0.22707324  0.71940875
   0.24778058  0.24574450  0.89511549
   0.23468603  0.27292678  0.78059125
   0.24778058  0.74574453  0.39511553
   0.23468603  0.77292675  0.28059128
   0.24248166  0.24192810  0.00106251
   0.24248166  0.74192810  0.50106251
   0.74248165  0.75807190  0.99893749
   0.74248165  0.25807190  0.49893743
   0.29556838  0.25003338  0.34690401
   0.29556838  0.75003338  0.84690404
   0.79474807  0.74971396  0.34751427
   0.79474807  0.24971396  0.84751427
   0.79556835  0.74996662  0.65309596
   0.79556835  0.24996664  0.15309598
   0.29018825  0.24849309  0.54963535
   0.29474810  0.25028604  0.65248573
   0.29474810  0.75028604  0.15248573
   0.29018825  0.74849307  0.04963534
   0.79145211  0.75503856  0.54978108
   0.79145211  0.25503856  0.04978108
   0.60797232  0.55333757  0.05623510
   0.32074291  0.32244712  0.40269166
   0.52769464  0.47232899  0.13806446
   0.29197162  0.18621907  0.30358261
   0.50278539  0.49499974  0.25136027
   0.00366211  0.96418035  0.03809405
   0.10417966  0.05360783  0.15095773
   0.60797232  0.05333758  0.55623508
   0.32074291  0.82244712  0.90269166
   0.52769464  0.97232902  0.63806444
   0.29197162  0.68621904  0.80358261
   0.50278539  0.99499977  0.75136030
   0.00366211  0.46418038  0.53809404
   0.10417966  0.55360788  0.65095776
   0.10797235  0.44666240  0.94376492
   0.82074291  0.67755288  0.59730834
   0.02769462  0.52767098  0.86193556
   0.79197168  0.81378096  0.69641739
   0.00278540  0.50500023  0.74863970
   0.50366211  0.03581963  0.96190596
   0.60417968  0.94639212  0.84904224
   0.10797235  0.94666243  0.44376490
   0.82074291  0.17755288  0.09730835
   0.02769462  0.02767100  0.36193556
   0.79197168  0.31378096  0.19641739
   0.00278540  0.00500026  0.24863972
   0.50366211  0.53581965  0.46190593
   0.60417968  0.44639218  0.34904227
   0.10746492  0.42657372  0.05429961
   0.82924741  0.67528647  0.40033671
   0.02685624  0.52419931  0.13827106
   0.79467112  0.81472349  0.30391791
   0.00275614  0.50483209  0.25127208
   0.50846183  0.05460011  0.03958693
   0.60779965  0.94555801  0.15167758
   0.10746492  0.92657369  0.55429965
   0.82924741  0.17528649  0.90033674
   0.02685624  0.02419928  0.63827103
   0.79467112  0.31472352  0.80391788
   0.00275614  0.00483209  0.75127208
   0.50846183  0.55460012  0.53958690
   0.60779965  0.44555801  0.65167761
   0.60746491  0.57342631  0.94570035
   0.32924739  0.32471353  0.59966326
   0.52685618  0.47580072  0.86172897
   0.29467115  0.18527651  0.69608212
   0.50275618  0.49516791  0.74872792
   0.00846184  0.94539988  0.96041310
   0.10779966  0.05444197  0.84832239
   0.60746491  0.07342626  0.44570041
   0.32924739  0.82471353  0.09966327
   0.52685618  0.97580069  0.36172894
   0.29467115  0.68527651  0.19608207
   0.50275618  0.99516791  0.24872789
   0.00846184  0.44539991  0.46041310
   0.10779966  0.55444199  0.34832245
   0.31750971  0.15670252  0.49889919
   0.31750971  0.65670258  0.99889922
   0.81750971  0.84329742  0.50110078
   0.81750971  0.34329748  0.00110078
   0.79018825  0.75150693  0.45036468
   0.79018825  0.25150693  0.95036465
   0.29145211  0.24496144  0.45021892
   0.29145211  0.74496144  0.95021892
BiTiFeO                                 
           1
     5.505160    0.001344   -0.001008
     0.001348    5.499814   -0.002012
    -0.007250    0.047554   40.864054
   Bi   Ti   O    Fe
  20  12  60   4
Direct configuration=     2
   0.25141194  0.24688930  0.10512251
   0.23809538  0.27384635  0.22025644
   0.25141194  0.74688930  0.60512253
   0.23809538  0.77384638  0.72025639
   0.74968692  0.75430103  0.89631130
   0.73708583  0.72344157  0.78125783
   0.74968692  0.25430103  0.39631133
   0.73708583  0.22344159  0.28125777
   0.74984579  0.75370906  0.10541615
   0.73528136  0.72832380  0.22014952
   0.74984579  0.25370909  0.60541617
   0.73528136  0.22832379  0.72014955
   0.24782900  0.24523873  0.89606778
   0.23408443  0.27425633  0.78138067
   0.24782900  0.74523876  0.39606781
   0.23408443  0.77425630  0.28138070
   0.24391700  0.24039534 -0.00250733
   0.24391700  0.74039534  0.49749267
   0.74352550  0.76016868  0.99534954
   0.74352550  0.26016868  0.49534948
   0.29529700  0.25066291  0.34813599
   0.29529700  0.75066291  0.84813602
   0.79463830  0.74972373  0.34826049
   0.79463830  0.24972373  0.84826049
   0.79563585  0.75034218  0.65385876
   0.79563585  0.25034220  0.15385877
   0.28959542  0.24643977  0.54818055
   0.29491271  0.24916603  0.65377593
   0.29491271  0.74916603  0.15377593
   0.28959542  0.74643975  0.04818054
   0.78921095  0.75446251  0.54862265
   0.78921095  0.25446251  0.04862265
   0.60012439  0.55783338  0.05654784
   0.32226472  0.32359401  0.40228343
   0.52683236  0.47288587  0.13778879
   0.29235881  0.18455439  0.30274689
   0.50256457  0.49522879  0.25090356
   0.01338218  0.95698692  0.03943916
   0.10495641  0.05365034  0.15061631
   0.60012439  0.05783339  0.55654782
   0.32226472  0.82359401  0.90228343
   0.52683236  0.97288590  0.63778878
   0.29235881  0.68455436  0.80274689
   0.50256457  0.99522882  0.75090359
   0.01338218  0.45698695  0.53943915
   0.10495641  0.55365039  0.65061634
   0.10391137  0.43922156  0.94449952
   0.82129445  0.67766079  0.59725092
   0.02758154  0.52730564  0.86154282
   0.79162282  0.81232503  0.69572722
   0.00288082  0.50510557  0.74818917
   0.50882349  0.04257349  0.96291797
   0.60454110  0.94728253  0.84865319
   0.10391137  0.93922159  0.44449949
   0.82129445  0.17766079  0.09725093
   0.02758154  0.02730566  0.36154282
   0.79162282  0.31232503  0.19572722
   0.00288082  0.00510560  0.24818919
   0.50882349  0.54257352  0.46291794
   0.60454110  0.44728259  0.34865322
   0.11343912  0.44110157  0.05490808
   0.82763778  0.67638784  0.40123123
   0.02705814  0.52465649  0.13793040
   0.79509009  0.81615820  0.30318545
   0.00250200  0.50470684  0.25081665
   0.50368858  0.04484257  0.04065180
   0.60728938  0.94454204  0.15128668
   0.11343912  0.94110154  0.55490812
   0.82763778  0.17638786  0.90123126
   0.02705814  0.02465646  0.63793037
   0.79509009  0.31615823  0.80318542
   0.00250200  0.00470685  0.75081665
   0.50368858  0.54484257  0.54065177
   0.60728938  0.44454204  0.65128671
   0.61427154  0.56561261  0.94644844
   0.32670719  0.32213534  0.59797382
   0.52789303  0.47525311  0.86141362
   0.29420638  0.18703099  0.69527350
   0.50285006  0.49498040  0.74827679
   0.00199384  0.95209677  0.96160311
   0.10689039  0.05441675  0.84795479
   0.61427154  0.06561257  0.44644850
   0.32670719  0.82213534  0.09797383
   0.52789303  0.97525308  0.36141359
   0.29420638  0.68703099  0.19527346
   0.50285006  0.99498040  0.24827676
   0.00199384  0.45209680  0.46160311
   0.10689039  0.55441677  0.34795485
   0.31667212  0.15965847  0.50211084
   0.31667212  0.65965853  1.00211087
   0.81751431  0.84001979  0.50202603
   0.81751431  0.34001985  0.00202603
   0.79094723  0.75375121  0.44931686
   0.79094723  0.25375121  0.94931683
   0.29015609  0.24507320  0.44884629
   0.29015609  0.74507320  0.94884629
BiTiFeO                                 
           1
     5.503365    0.001260   -0.007177
     0.001266    5.496671   -0.004002
    -0.053064    0.032706   40.739459
   Bi   Ti   O    Fe
  20  12  60   4
Direct configuration=     3
   0.25199030  0.24653042  0.10482966
   0.23874659  0.27306988  0.21994131
   0.25199030  0.74653042  0.60482967
   0.23874659  0.77306991  0.71994127
   0.75015430  0.75393461  0.89635983
   0.73667575  0.72382234  0.78122365
   0.75015430  0.25393461  0.39635985
   0.73667575  0.22382235  0.28122359
   0.74987365  0.75382186  0.10511334
   0.73629915  0.72879206  0.21982296
   0.74987365  0.25382189  0.60511336
   0.73629915  0.22879204  0.71982299
   0.24810407  0.24583459  0.89614282
   0.23394659  0.27412563  0.78135637
   0.24810407  0.74583462  0.39614285
   0.23394659  0.77412560  0.28135640
   0.24382509  0.24038655 -0.00217601
   0.24382509  0.74038655  0.49782399
   0.74344770  0.75994761  0.99585388
   0.74344770  0.25994761  0.49585382
   0.29517514  0.25035704  0.34735269
   0.29517514  0.75035704  0.84735272
   0.79485149  0.74996483  0.34761360
   0.79485149  0.24996483  0.84761360
   0.79557113  0.74915150  0.65257318
   0.79557113  0.24915151  0.15257319
   0.29073783  0.24622147  0.54908381
   0.29503153  0.25085121  0.65209425
   0.29503153  0.75085121  0.15209425
   0.29073783  0.74622145  0.04908380
   0.78905665  0.75507115  0.54932581
   0.78905665  0.25507115  0.04932581
   0.60173371  0.55539805  0.05641588
   0.32259830  0.32319881  0.40218404
   0.52699629  0.47278287  0.13799787
   0.29252494  0.18549467  0.30333256
   0.50245060  0.49494631  0.25110854
   0.01138605  0.95839505  0.03933428
   0.10466113  0.05339889  0.15082234
   0.60173371  0.05539806  0.55641586
   0.32259830  0.82319881  0.90218404
   0.52699629  0.97278290  0.63799786
   0.29252494  0.68549464  0.80333256
   0.50245060  0.99494634  0.75110857
   0.01138605  0.45839508  0.53933427
   0.10466113  0.55339894  0.65082237
   0.10491028  0.43955936  0.94459983
   0.82133014  0.67844142  0.59704672
   0.02730626  0.52729012  0.86167829
   0.79125988  0.81370026  0.69688159
   0.00272109  0.50463240  0.74833164
   0.50972503  0.04194643  0.96251262
   0.60463641  0.94714005  0.84872392
   0.10491028  0.93955939  0.44459980
   0.82133014  0.17844142  0.09704673
   0.02730626  0.02729014  0.36167829
   0.79125988  0.31370026  0.19688159
   0.00272109  0.00463243  0.24833165
   0.50972503  0.54194645  0.46251259
   0.60463641  0.44714011  0.34872395
   0.11067786  0.44086511  0.05491495
   0.82703001  0.67657946  0.40137616
   0.02710905  0.52464948  0.13813237
   0.79510854  0.81532238  0.30359358
   0.00234830  0.50515583  0.25102040
   0.50487226  0.04589890  0.04043524
   0.60686722  0.94473571  0.15144464
   0.11067786  0.94086508  0.55491499
   0.82703001  0.17657948  0.90137619
   0.02710905  0.02464945  0.63813234
   0.79510854  0.31532241  0.80359355
   0.00234830  0.00515584  0.75102040
   0.50487226  0.54589891  0.54043522
   0.60686722  0.44473571  0.65144467
   0.61306910  0.56505401  0.94635600
   0.32588721  0.32190189  0.59776950
   0.52764600  0.47530811  0.86155901
   0.29377086  0.18520801  0.69678693
   0.50265427  0.49536093  0.74842869
   0.00474479  0.95365657  0.96122247
   0.10676391  0.05458483  0.84806308
   0.61306910  0.06505396  0.44635606
   0.32588721  0.82190189  0.09776952
   0.52764600  0.97530808  0.36155898
   0.29377086  0.68520801  0.19678689
   0.50265427  0.99536093  0.24842866
   0.00474479  0.45365660  0.46122247
   0.10676391  0.55458485  0.34806314
   0.31698860  0.15973890  0.50125766
   0.31698860  0.65973896  1.00125769
   0.81764643  0.83932334  0.50138547
   0.81764643  0.33932340  0.00138547
   0.79033277  0.75307417  0.44953574
   0.79033277  0.25307417  0.94953571
   0.28875542  0.24537476  0.44923675
   0.28875542  0.74537476  0.94923675
BiTiFeO                                 
           1
     5.493061    0.000985   -0.003536
     0.000992    5.486431   -0.002013
    -0.025971    0.047400   40.742393
   Bi   Ti   O    Fe
  20  12  60   4
Direct configuration=     4
   0.25235318  0.24676135  0.10443167
   0.23920993  0.27313999  0.21976934
   0.25235318  0.74676135  0.60443168
   0.23920993  0.77314002  0.71976929
   0.74977027  0.75367346  0.89627179
   0.73610175  0.72453488  0.78099173
   0.74977027  0.25367346  0.39627182
   0.73610175  0.22453489  0.28099167
   0.75031621  0.75347473  0.10472805
   0.73686945  0.72848317  0.21965335
   0.75031621  0.25347476  0.60472807
   0.73686945  0.22848316  0.71965338
   0.24781439  0.24636492  0.89609920
   0.23368896  0.27376355  0.78112440
   0.24781439  0.74636495  0.39609923
   0.23368896  0.77376352  0.28112443
   0.24353571  0.24027409 -0.00235462
   0.24353571  0.74027409  0.49764538
   0.74346828  0.75985035  0.99587569
   0.74346828  0.25985035  0.49587563
   0.29522090  0.25039090  0.34686195
   0.29522090  0.75039090  0.84686198
   0.79509564  0.74994484  0.34718253
   0.79509564  0.24994484  0.84718253
   0.79526371  0.75026820  0.65315440
   0.79526371  0.25026821  0.15315442
   0.29107132  0.24640827  0.54920237
   0.29502056  0.24949166  0.65273736
   0.29502056  0.74949166  0.15273736
   0.29107132  0.74640825  0.04920236
   0.78926848  0.75502034  0.54926490
   0.78926848  0.25502034  0.04926490
   0.60297665  0.55276695  0.05644819
   0.32335156  0.32272605  0.40224563
   0.52702523  0.47292474  0.13800761
   0.29275103  0.18613031  0.30377312
   0.50266047  0.49467684  0.25139082
   0.01040590  0.95933234  0.03952915
   0.10446608  0.05301849  0.15076864
   0.60297665  0.05276696  0.55644816
   0.32335156  0.82272605  0.90224563
   0.52702523  0.97292477  0.63800759
   0.29275103  0.68613028  0.80377312
   0.50266047  0.99467687  0.75139085
   0.01040590  0.45933237  0.53952914
   0.10446608  0.55301854  0.65076867
   0.10648033  0.43956991  0.94497085
   0.82150520  0.67916977  0.59704530
   0.02702082  0.52728749  0.86185137
   0.79106878  0.81248409  0.69634525
   0.00257977  0.50422251  0.74861636
   0.51069027  0.04123000  0.96217892
   0.60495845  0.94688510  0.84883414
   0.10648033  0.93956994  0.44497082
   0.82150520  0.17916977  0.09704531
   0.02702082  0.02728751  0.36185137
   0.79106878  0.31248409  0.19634525
   0.00257977  0.00422254  0.24861637
   0.51069027  0.54123003  0.46217889
   0.60495845  0.44688516  0.34883417
   0.10730687  0.44196733  0.05518140
   0.82632033  0.67682228  0.40172911
   0.02719837  0.52471517  0.13812492
   0.79515330  0.81471105  0.30387809
   0.00242034  0.50544395  0.25130450
   0.50660229  0.04638885  0.04043470
   0.60620825  0.94495169  0.15130879
   0.10730687  0.94196730  0.55518145
   0.82632033  0.17682229  0.90172914
   0.02719837  0.02471514  0.63812489
   0.79515330  0.31471108  0.80387806
   0.00242034  0.00544395  0.75130450
   0.50660229  0.54638886  0.54043468
   0.60620825  0.44495169  0.65130882
   0.61176300  0.56440930  0.94643412
   0.32465594  0.32144550  0.59763304
   0.52748403  0.47520466  0.86174715
   0.29341853  0.18648122  0.69627045
   0.50259892  0.49572396  0.74871553
   0.00782291  0.95571275  0.96098254
   0.10656950  0.05497269  0.84823926
   0.61176300  0.06440926  0.44643418
   0.32465594  0.82144550  0.09763306
   0.52748403  0.97520463  0.36174712
   0.29341853  0.68648122  0.19627041
   0.50259892  0.99572396  0.24871550
   0.00782291  0.45571278  0.46098254
   0.10656950  0.55497271  0.34823932
   0.31743102  0.16081920  0.50089702
   0.31743102  0.66081926  1.00089705
   0.81793671  0.83769307  0.50111677
   0.81793671  0.33769313  0.00111677
   0.78978653  0.75261938  0.44956949
   0.78978653  0.25261938  0.94956946
   0.28731356  0.24564848  0.44943356
   0.28731356  0.74564848  0.94943356
BiTiFeO                                 
           1
     5.498566    0.001022   -0.003673
     0.001029    5.491903   -0.002682
    -0.027010    0.042483   40.749051
   Bi   Ti   O    Fe
  20  12  60   4
Direct configuration=     5
   0.25189970  0.24677776  0.10423158
   0.23907468  0.27327459  0.21985995
   0.25189970  0.74677776  0.60423160
   0.23907468  0.77327462  0.71985991
   0.74871819  0.75371653  0.89631858
   0.73627179  0.72527044  0.78110760
   0.74871819  0.25371653  0.39631861
   0.73627179  0.22527045  0.28110754
   0.75089139  0.75354373  0.10454804
   0.73671707  0.72823355  0.21975699
   0.75089139  0.25354376  0.60454806
   0.73671707  0.22823354  0.71975702
   0.24748086  0.24634778  0.89617062
   0.23387850  0.27322826  0.78122540
   0.24748086  0.74634781  0.39617065
   0.23387850  0.77322823  0.28122543
   0.24345474  0.24019774 -0.00295420
   0.24345474  0.74019774  0.49704580
   0.74369025  0.75987152  0.99540622
   0.74369025  0.25987152  0.49540616
   0.29531081  0.25143986  0.34802173
   0.29531081  0.75143986  0.84802176
   0.79497073  0.74926782  0.34809179
   0.79497073  0.24926782  0.84809179
   0.79549436  0.74983977  0.65311823
   0.79549436  0.24983978  0.15311824
   0.29024988  0.24708359  0.54862505
   0.29506806  0.24925581  0.65312735
   0.29506806  0.74925581  0.15312735
   0.29024988  0.74708358  0.04862504
   0.78996057  0.75367150  0.54872094
   0.78996057  0.25367150  0.04872094
   0.60167489  0.55269000  0.05655356
   0.32396605  0.32259285  0.40230645
   0.52696092  0.47327917  0.13798713
   0.29274475  0.18489119  0.30289166
   0.50279469  0.49502759  0.25137867
   0.01171516  0.95866852  0.03985890
   0.10442445  0.05272074  0.15070822
   0.60167489  0.05269001  0.55655354
   0.32396605  0.82259285  0.90230645
   0.52696092  0.97327920  0.63798711
   0.29274475  0.68489116  0.80289166
   0.50279469  0.99502762  0.75137870
   0.01171516  0.45866855  0.53985889
   0.10442445  0.55272079  0.65070825
   0.10732867  0.43896442  0.94535541
   0.82175618  0.67917410  0.59723120
   0.02704677  0.52730287  0.86180326
   0.79090649  0.81216240  0.69629285
   0.00252708  0.50457277  0.74860993
   0.51117116  0.04087671  0.96214118
   0.60516890  0.94678795  0.84874054
   0.10732867  0.93896445  0.44535538
   0.82175618  0.17917410  0.09723122
   0.02704677  0.02730289  0.36180326
   0.79090649  0.31216240  0.19629285
   0.00252708  0.00457280  0.24860995
   0.51117116  0.54087673  0.46214115
   0.60516890  0.44678801  0.34874057
   0.10635051  0.44456353  0.05545411
   0.82600267  0.67705785  0.40190432
   0.02724756  0.52474619  0.13808616
   0.79509135  0.81568725  0.30312158
   0.00254327  0.50497148  0.25129572
   0.50690248  0.04507401  0.04061325
   0.60580032  0.94523004  0.15119070
   0.10635051  0.94456350  0.55545416
   0.82600267  0.17705786  0.90190435
   0.02724756  0.02474616  0.63808613
   0.79509135  0.31568728  0.80312155
   0.00254327  0.00497148  0.75129572
   0.50690248  0.54507402  0.54061323
   0.60580032  0.44523004  0.65119073
   0.61161026  0.56400091  0.94658803
   0.32397985  0.32094797  0.59759838
   0.52760890  0.47489168  0.86171114
   0.29319470  0.18721635  0.69595061
   0.50251562  0.49545142  0.74870584
   0.00871769  0.95696518  0.96108038
   0.10635497  0.05515876  0.84820662
   0.61161026  0.06400087  0.44658809
   0.32397985  0.82094797  0.09759839
   0.52760890  0.97489165  0.36171111
   0.29319470  0.68721635  0.19595056
   0.50251562  0.99545142  0.24870581
   0.00871769  0.45696521  0.46108038
   0.10635497  0.55515878  0.34820668
   0.31772068  0.16220433  0.50125540
   0.31772068  0.66220439  1.00125543
   0.81821964  0.83644846  0.50127330
   0.81821964  0.33644852  0.00127330
   0.78949225  0.75299730  0.44943487
   0.78949225  0.25299730  0.94943484
   0.28732924  0.24565559  0.44929467
   0.28732924  0.74565559  0.94929467
BiTiFeO                                 
           1
     5.499424    0.000886   -0.003474
     0.000892    5.492615   -0.002731
    -0.025543    0.042124   40.742611
   Bi   Ti   O    Fe
  20  12  60   4
Direct configuration=     6
   0.25194709  0.24667689  0.10423377
   0.23906721  0.27293031  0.21985279
   0.25194709  0.74667689  0.60423379
   0.23906721  0.77293034  0.71985274
   0.74868998  0.75352506  0.89634781
   0.73620407  0.72535364  0.78111840
   0.74868998  0.25352506  0.39634783
   0.73620407  0.22535366  0.28111834
   0.75090041  0.75349575  0.10453940
   0.73696940  0.72834364  0.21974628
   0.75090041  0.25349578  0.60453942
   0.73696940  0.22834362  0.71974631
   0.24756355  0.24660502  0.89620970
   0.23395801  0.27331923  0.78123873
   0.24756355  0.74660505  0.39620973
   0.23395801  0.77331920  0.28123876
   0.24357791  0.24033500 -0.00295555
   0.24357791  0.74033500  0.49704445
   0.74374963  0.75970350  0.99549999
   0.74374963  0.25970350  0.49549993
   0.29511652  0.25071949  0.34739728
   0.29511652  0.75071949  0.84739731
   0.79494560  0.74999344  0.34752122
   0.79494560  0.24999344  0.84752122
   0.79550886  0.74962548  0.65291402
   0.79550886  0.24962550  0.15291404
   0.29077121  0.24687594  0.54892175
   0.29517741  0.24970791  0.65271530
   0.29517741  0.74970791  0.15271530
   0.29077121  0.74687592  0.04892173
   0.79000482  0.75389074  0.54898985
   0.79000482  0.25389074  0.04898985
   0.60146014  0.55192816  0.05645828
   0.32410573  0.32241859  0.40227576
   0.52696796  0.47328056  0.13799302
   0.29283728  0.18580539  0.30343749
   0.50277202  0.49516753  0.25137506
   0.01138643  0.95897548  0.03984450
   0.10440876  0.05276656  0.15070424
   0.60146014  0.05192817  0.55645826
   0.32410573  0.82241859  0.90227576
   0.52696796  0.97328059  0.63799300
   0.29283728  0.68580536  0.80343749
   0.50277202  0.99516756  0.75137509
   0.01138643  0.45897551  0.53984449
   0.10440876  0.55276661  0.65070427
   0.10767649  0.43885924  0.94546100
   0.82180523  0.67939899  0.59711454
   0.02694758  0.52731472  0.86190318
   0.79080220  0.81226516  0.69645966
   0.00255749  0.50457400  0.74860457
   0.51157685  0.04055346  0.96200141
   0.60525392  0.94665134  0.84882661
   0.10767649  0.93885927  0.44546097
   0.82180523  0.17939899  0.09711455
   0.02694758  0.02731474  0.36190318
   0.79080220  0.31226516  0.19645966
   0.00255749  0.00457403  0.24860459
   0.51157685  0.54055348  0.46200138
   0.60525392  0.44665140  0.34882664
   0.10534152  0.44529617  0.05543608
   0.82576249  0.67724360  0.40194141
   0.02719542  0.52474915  0.13808719
   0.79506203  0.81481868  0.30358507
   0.00256318  0.50492860  0.25129368
   0.50713960  0.04483399  0.04053619
   0.60572861  0.94526261  0.15115525
   0.10534152  0.94529614  0.55543612
   0.82576249  0.17724361  0.90194144
   0.02719542  0.02474912  0.63808716
   0.79506203  0.31481871  0.80358504
   0.00256318  0.00492860  0.75129368
   0.50713960  0.54483400  0.54053616
   0.60572861  0.44526261  0.65115528
   0.61137179  0.56376601  0.94657754
   0.32362958  0.32075681  0.59743500
   0.52746654  0.47481915  0.86181596
   0.29298421  0.18689343  0.69632671
   0.50248070  0.49539642  0.74870178
   0.00949620  0.95761141  0.96100214
   0.10636265  0.05522793  0.84832977
   0.61137179  0.06376596  0.44657760
   0.32362958  0.82075681  0.09743502
   0.52746654  0.97481912  0.36181593
   0.29298421  0.68689343  0.19632667
   0.50248070  0.99539642  0.24870175
   0.00949620  0.45761144  0.46100214
   0.10636265  0.55522796  0.34832983
   0.31790193  0.16253648  0.50105087
   0.31790193  0.66253654  1.00105090
   0.81836204  0.83605465  0.50106675
   0.81836204  0.33605471  0.00106675
   0.78924089  0.75301464  0.44950998
   0.78924089  0.25301464  0.94950995
   0.28720057  0.24572990  0.44939851
   0.28720057  0.74572990  0.94939851
BiTiFeO                                 
           1
     5.498088    0.000762   -0.002970
     0.000769    5.491090   -0.002621
    -0.021804    0.042929   40.746516
   Bi   Ti   O    Fe
  20  12  60   4
Direct configuration=     7
   0.25192499  0.24676463  0.10412173
   0.23906437  0.27281988  0.21981240
   0.25192499  0.74676463  0.60412174
   0.23906437  0.77281991  0.71981235
   0.74822302  0.75362893  0.89636754
   0.73614402  0.72571686  0.78109662
   0.74822302  0.25362893  0.39636757
   0.73614402  0.22571688  0.28109656
   0.75111041  0.75326646  0.10441782
   0.73710543  0.72826715  0.21970971
   0.75111041  0.25326649  0.60441784
   0.73710543  0.22826713  0.71970974
   0.24735041  0.24659944  0.89624963
   0.23410058  0.27318412  0.78121409
   0.24735041  0.74659947  0.39624966
   0.23410058  0.77318409  0.28121412
   0.24366514  0.24051940 -0.00315600
   0.24366514  0.74051940  0.49684400
   0.74386645  0.75950097  0.99545167
   0.74386645  0.25950097  0.49545161
   0.29504915  0.25073867  0.34738449
   0.29504915  0.75073867  0.84738452
   0.79494691  0.74999677  0.34753375
   0.79494691  0.24999677  0.84753375
   0.79543773  0.74981246  0.65296952
   0.79543773  0.24981247  0.15296953
   0.29096863  0.24705547  0.54890789
   0.29519763  0.24942005  0.65281214
   0.29519763  0.74942005  0.15281214
   0.29096863  0.74705545  0.04890788
   0.79007103  0.75361720  0.54895723
   0.79007103  0.25361720  0.04895722
   0.60095160  0.55104949  0.05642649
   0.32440930  0.32219915  0.40228207
   0.52697234  0.47336243  0.13796887
   0.29288123  0.18604811  0.30353140
   0.50282383  0.49526039  0.25143198
   0.01139584  0.95922766  0.03994305
   0.10437791  0.05267265  0.15065917
   0.60095160  0.05104949  0.55642646
   0.32440930  0.82219915  0.90228207
   0.52697234  0.97336246  0.63796886
   0.29288123  0.68604808  0.80353140
   0.50282383  0.99526042  0.75143201
   0.01139584  0.45922769  0.53994304
   0.10437791  0.55267270  0.65065920
   0.10829359  0.43860651  0.94568690
   0.82192800  0.67952966  0.59712198
   0.02687045  0.52730533  0.86195886
   0.79071232  0.81191271  0.69637009
   0.00253475  0.50455837  0.74866917
   0.51207218  0.04008973  0.96186700
   0.60540739  0.94649505  0.84885894
   0.10829359  0.93860654  0.44568687
   0.82192800  0.17952966  0.09712200
   0.02687045  0.02730535  0.36195886
   0.79071232  0.31191271  0.19637009
   0.00253475  0.00455840  0.24866919
   0.51207218  0.54008975  0.46186697
   0.60540739  0.44649511  0.34885897
   0.10393917  0.44651835  0.05552939
   0.82550881  0.67751825  0.40202699
   0.02718731  0.52480605  0.13805535
   0.79496784  0.81459436  0.30360226
   0.00261718  0.50482884  0.25135302
   0.50773053  0.04434914  0.04053648
   0.60549811  0.94540452  0.15105896
   0.10393917  0.94651832  0.55552943
   0.82550881  0.17751826  0.90202702
   0.02718731  0.02480603  0.63805532
   0.79496784  0.31459439  0.80360223
   0.00261718  0.00482885  0.75135302
   0.50773053  0.54434915  0.54053645
   0.60549811  0.44540452  0.65105898
   0.61116183  0.56350793  0.94662264
   0.32315757  0.32056112  0.59737854
   0.52733481  0.47468325  0.86187874
   0.29277104  0.18729202  0.69625391
   0.50247460  0.49540282  0.74876389
   0.01046586  0.95849534  0.96097321
   0.10635438  0.05533116  0.84842085
   0.61116183  0.06350789  0.44662270
   0.32315757  0.82056112  0.09737855
   0.52733481  0.97468322  0.36187871
   0.29277104  0.68729202  0.19625386
   0.50247460  0.99540282  0.24876386
   0.01046586  0.45849537  0.46097321
   0.10635438  0.55533118  0.34842091
   0.31819675  0.16325421  0.50098764
   0.31819675  0.66325427  1.00098767
   0.81859073  0.83530642  0.50098352
   0.81859073  0.33530648  0.00098352
   0.78901697  0.75306285  0.44951801
   0.78901697  0.25306285  0.94951798
   0.28716955  0.24585749  0.44943035
   0.28716955  0.74585749  0.94943035
BiTiFeO                                 
           1
     5.499250    0.000647   -0.002455
     0.000653    5.492082   -0.002682
    -0.017997    0.042479   40.740910
   Bi   Ti   O    Fe
  20  12  60   4
Direct configuration=     8
   0.25179548  0.24678996  0.10401296
   0.23901100  0.27267714  0.21979774
   0.25179548  0.74678996  0.60401298
   0.23901100  0.77267717  0.71979770
   0.74768660  0.75377617  0.89639161
   0.73613375  0.72600004  0.78110258
   0.74768660  0.25377617  0.39639164
   0.73613375  0.22600006  0.28110252
   0.75125782  0.75308778  0.10429675
   0.73722004  0.72821295  0.21970240
   0.75125782  0.25308781  0.60429677
   0.73722004  0.22821294  0.71970243
   0.24709256  0.24654560  0.89629635
   0.23423287  0.27308642  0.78121389
   0.24709256  0.74654563  0.39629638
   0.23423287  0.77308639  0.28121392
   0.24374428  0.24077082 -0.00335990
   0.24374428  0.74077082  0.49664010
   0.74404656  0.75926173  0.99541907
   0.74404656  0.25926173  0.49541901
   0.29496923  0.25079177  0.34746976
   0.29496923  0.75079177  0.84746979
   0.79491970  0.75005042  0.34756970
   0.79491970  0.25005042  0.84756970
   0.79542416  0.74967647  0.65284993
   0.79542416  0.24967648  0.15284994
   0.29101385  0.24729868  0.54889692
   0.29522767  0.24948740  0.65272181
   0.29522767  0.74948740  0.15272181
   0.29101385  0.74729867  0.04889691
   0.79021293  0.75325190  0.54893045
   0.79021293  0.25325190  0.04893045
   0.60023136  0.55017524  0.05638610
   0.32468908  0.32197719  0.40228955
   0.52697787  0.47344886  0.13795187
   0.29290518  0.18619812  0.30355521
   0.50283810  0.49537825  0.25145632
   0.01151430  0.95947695  0.04003384
   0.10434095  0.05258823  0.15062295
   0.60023136  0.05017525  0.55638608
   0.32468908  0.82197719  0.90228955
   0.52697787  0.97344889  0.63795185
   0.29290518  0.68619809  0.80355521
   0.50283810  0.99537828  0.75145635
   0.01151430  0.45947698  0.54003383
   0.10434095  0.55258829  0.65062298
   0.10891792  0.43835351  0.94591198
   0.82206177  0.67958503  0.59712888
   0.02679071  0.52728663  0.86201269
   0.79061806  0.81177619  0.69641332
   0.00255090  0.50458002  0.74870907
   0.51259613  0.03960354  0.96172899
   0.60558269  0.94636290  0.84888929
   0.10891792  0.93835354  0.44591195
   0.82206177  0.17958503  0.09712889
   0.02679071  0.02728665  0.36201269
   0.79061806  0.31177619  0.19641332
   0.00255090  0.00458005  0.24870908
   0.51259613  0.53960356  0.46172896
   0.60558269  0.44636296  0.34888932
   0.10252164  0.44786582  0.05561584
   0.82529218  0.67784196  0.40209322
   0.02716966  0.52486713  0.13803134
   0.79486000  0.81438082  0.30361937
   0.00268453  0.50469131  0.25138177
   0.50833944  0.04373358  0.04053115
   0.60527796  0.94555958  0.15096688
   0.10252164  0.94786579  0.55561588