BiTiFeO                                 
           1
     5.478409    0.001459    0.006175
     0.001463    5.476303   -0.001569
     0.046038    0.050528   40.533512
   Bi   Ti   O    Fe
  20  12  60   4
Direct configuration=     1
   0.25163469  0.24552768  0.10456018
   0.23768441  0.27533320  0.21951799
   0.25163469  0.74552768  0.60456020
   0.23768441  0.77533323  0.71951795
   0.75163466  0.75447232  0.89543980
   0.73768437  0.72466677  0.78048205
   0.75163466  0.25447232  0.39543983
   0.73768437  0.22466679  0.28048199
   0.74778056  0.75425547  0.10488448
   0.73468602  0.72707325  0.21940872
   0.74778056  0.25425550  0.60488451
   0.73468602  0.22707324  0.71940875
   0.24778058  0.24574450  0.89511549
   0.23468603  0.27292678  0.78059125
   0.24778058  0.74574453  0.39511553
   0.23468603  0.77292675  0.28059128
   0.24248166  0.24192810  0.00106251
   0.24248166  0.74192810  0.50106251
   0.74248165  0.75807190  0.99893749
   0.74248165  0.25807190  0.49893743
   0.79474807  0.74971396  0.34751427
   0.79474807  0.24971396  0.84751427
   0.79556835  0.74996662  0.65309596
   0.79556835  0.24996664  0.15309598
   0.29018825  0.24849309  0.54963535
   0.29474810  0.25028604  0.65248573
   0.29474810  0.75028604  0.15248573
   0.29018825  0.74849307  0.04963534
   0.29145211  0.24496144  0.45021892
   0.29145211  0.74496144  0.95021892
   0.79145211  0.75503856  0.54978108
   0.79145211  0.25503856  0.04978108
   0.60797232  0.55333757  0.05623510
   0.32074291  0.32244712  0.40269166
   0.52769464  0.47232899  0.13806446
   0.29197162  0.18621907  0.30358261
   0.50278539  0.49499974  0.25136027
   0.00366211  0.96418035  0.03809405
   0.10417966  0.05360783  0.15095773
   0.60797232  0.05333758  0.55623508
   0.32074291  0.82244712  0.90269166
   0.52769464  0.97232902  0.63806444
   0.29197162  0.68621904  0.80358261
   0.50278539  0.99499977  0.75136030
   0.00366211  0.46418038  0.53809404
   0.10417966  0.55360788  0.65095776
   0.10797235  0.44666240  0.94376492
   0.82074291  0.67755288  0.59730834
   0.02769462  0.52767098  0.86193556
   0.79197168  0.81378096  0.69641739
   0.00278540  0.50500023  0.74863970
   0.50366211  0.03581963  0.96190596
   0.60417968  0.94639212  0.84904224
   0.10797235  0.94666243  0.44376490
   0.82074291  0.17755288  0.09730835
   0.02769462  0.02767100  0.36193556
   0.79197168  0.31378096  0.19641739
   0.00278540  0.00500026  0.24863972
   0.50366211  0.53581965  0.46190593
   0.60417968  0.44639218  0.34904227
   0.10746492  0.42657372  0.05429961
   0.82924741  0.67528647  0.40033671
   0.02685624  0.52419931  0.13827106
   0.79467112  0.81472349  0.30391791
   0.00275614  0.50483209  0.25127208
   0.50846183  0.05460011  0.03958693
   0.60779965  0.94555801  0.15167758
   0.10746492  0.92657369  0.55429965
   0.82924741  0.17528649  0.90033674
   0.02685624  0.02419928  0.63827103
   0.79467112  0.31472352  0.80391788
   0.00275614  0.00483209  0.75127208
   0.50846183  0.55460012  0.53958690
   0.60779965  0.44555801  0.65167761
   0.60746491  0.57342631  0.94570035
   0.32924739  0.32471353  0.59966326
   0.52685618  0.47580072  0.86172897
   0.29467115  0.18527651  0.69608212
   0.50275618  0.49516791  0.74872792
   0.00846184  0.94539988  0.96041310
   0.10779966  0.05444197  0.84832239
   0.60746491  0.07342626  0.44570041
   0.32924739  0.82471353  0.09966327
   0.52685618  0.97580069  0.36172894
   0.29467115  0.68527651  0.19608207
   0.50275618  0.99516791  0.24872789
   0.00846184  0.44539991  0.46041310
   0.10779966  0.55444199  0.34832245
   0.31750971  0.15670252  0.49889919
   0.31750971  0.65670258  0.99889922
   0.81750971  0.84329742  0.50110078
   0.81750971  0.34329748  0.00110078
   0.29556838  0.25003338  0.34690401
   0.29556838  0.75003338  0.84690404
   0.79018825  0.75150693  0.45036468
   0.79018825  0.25150693  0.95036465
BiTiFeO                                 
           1
     5.500630    0.001275    0.004530
     0.001281    5.498673   -0.002820
     0.033712    0.041569   40.837078
   Bi   Ti   O    Fe
  20  12  60   4
Direct configuration=     2
   0.25169216  0.24627763  0.10510640
   0.23802863  0.27406321  0.22020650
   0.25169216  0.74627763  0.60510641
   0.23802863  0.77406324  0.72020645
   0.75128339  0.75373082  0.89397696
   0.73647678  0.72383343  0.78144940
   0.75128339  0.25373082  0.39397699
   0.73647678  0.22383344  0.28144934
   0.74936073  0.75375519  0.10543417
   0.73535210  0.72801339  0.22011028
   0.74936073  0.25375522  0.60543419
   0.73535210  0.22801337  0.72011031
   0.24819435  0.24671936  0.89373011
   0.23435717  0.27440699  0.78158583
   0.24819435  0.74671939  0.39373014
   0.23435717  0.77440696  0.28158586
   0.24310954  0.24147430 -0.00022659
   0.24310954  0.74147430  0.49977341
   0.74328354  0.75896445  0.99762134
   0.74328354  0.25896445  0.49762128
   0.79555537  0.74798261  0.34753371
   0.79555537  0.24798261  0.84753371
   0.79560870  0.75034555  0.65386241
   0.79560870  0.25034556  0.15386242
   0.29074888  0.24802285  0.54956331
   0.29492016  0.24943934  0.65357211
   0.29492016  0.74943934  0.15357211
   0.29074888  0.74802284  0.04956330
   0.29138590  0.24477133  0.44859294
   0.29138590  0.74477133  0.94859294
   0.79055033  0.75450421  0.54959474
   0.79055033  0.25450421  0.04959474
   0.60431033  0.55508105  0.05621336
   0.32033816  0.32138272  0.40365639
   0.52709017  0.47265970  0.13780249
   0.29288847  0.18559606  0.30355435
   0.50268802  0.49513682  0.25090894
   0.00748689  0.96083917  0.03849608
   0.10475102  0.05381985  0.15063750
   0.60431033  0.05508105  0.55621334
   0.32033816  0.82138272  0.90365639
   0.52709017  0.97265973  0.63780247
   0.29288847  0.68559603  0.80355435
   0.50268802  0.99513685  0.75090897
   0.00748689  0.46083920  0.53849608
   0.10475102  0.55381990  0.65063753
   0.10355205  0.44359951  0.94458703
   0.82087063  0.67791157  0.59703710
   0.02843691  0.52836989  0.86234838
   0.79159702  0.81246682  0.69575872
   0.00302218  0.50505419  0.74818518
   0.50872287  0.04083059  0.96229811
   0.60477417  0.94521287  0.84938640
   0.10355205  0.94359954  0.44458700
   0.82087063  0.17791157  0.09703711
   0.02843691  0.02836991  0.36234838
   0.79159702  0.31246682  0.19575872
   0.00302218  0.00505422  0.24818519
   0.50872287  0.54083061  0.46229808
   0.60477417  0.44521293  0.34938643
   0.10942934  0.43313187  0.05438490
   0.82748421  0.67679644  0.40214037
   0.02685948  0.52447370  0.13796864
   0.79480566  0.81599355  0.30330423
   0.00226198  0.50472114  0.25078418
   0.50626708  0.05044642  0.03994606
   0.60764499  0.94475360  0.15133355
   0.10942934  0.93313184  0.55438494
   0.82748421  0.17679646  0.90214040
   0.02685948  0.02447367  0.63796861
   0.79480566  0.31599358  0.80330420
   0.00226198  0.00472114  0.75078418
   0.50626708  0.55044642  0.53994603
   0.60764499  0.44475360  0.65133358
   0.61190034  0.56446654  0.94643376
   0.32783969  0.32295817  0.59844936
   0.52603581  0.47602326  0.86215284
   0.29424356  0.18690195  0.69533602
   0.50253679  0.49532116  0.74831841
   0.00343027  0.95195926  0.96097245
   0.10911874  0.05551371  0.84868900
   0.61190034  0.06446650  0.44643382
   0.32783969  0.82295817  0.09844938
   0.52603581  0.97602323  0.36215281
   0.29424356  0.68690195  0.19533598
   0.50253679  0.99532116  0.24831838
   0.00343027  0.45195929  0.46097245
   0.10911874  0.55551373  0.34868906
   0.31706210  0.15804782  0.50037191
   0.31706210  0.65804788  1.00037194
   0.81795651  0.84126617  0.50094463
   0.81795651  0.34126623  0.00094463
   0.29479903  0.24987186  0.34659138
   0.29479903  0.74987186  0.84659140
   0.78988750  0.75308772  0.44929458
   0.78988750  0.25308772  0.94929455
BiTiFeO                                 
           1
     5.500091    0.000559    0.000573
     0.000569    5.494680   -0.003847
     0.004341    0.033908   40.819205
   Bi   Ti   O    Fe
  20  12  60   4
Direct configuration=     3
   0.25221078  0.24664939  0.10517468
   0.23878621  0.27271439  0.22030782
   0.25221078  0.74664939  0.60517469
   0.23878621  0.77271442  0.72030778
   0.75253147  0.75279105  0.89381339
   0.73532338  0.72388227  0.78172851
   0.75253147  0.25279105  0.39381342
   0.73532338  0.22388228  0.28172845
   0.75028785  0.75353193  0.10549413
   0.73650378  0.72915110  0.22016599
   0.75028785  0.25353196  0.60549416
   0.73650378  0.22915108  0.72016602
   0.24894620  0.24785641  0.89358291
   0.23443068  0.27573950  0.78188830
   0.24894620  0.74785644  0.39358294
   0.23443068  0.77573947  0.28188833
   0.24310575  0.24130805 -0.00074225
   0.24310575  0.74130805  0.49925775
   0.74387954  0.75892229  0.99719306
   0.74387954  0.25892229  0.49719300
   0.79540454  0.74860054  0.34758980
   0.79540454  0.24860054  0.84758980
   0.79562052  0.74957245  0.65321694
   0.79562052  0.24957246  0.15321696
   0.29078248  0.24741923  0.54953935
   0.29502662  0.25027815  0.65286487
   0.29502662  0.75027815  0.15286487
   0.29078248  0.74741922  0.04953934
   0.29094446  0.24459474  0.44873867
   0.29094446  0.74459474  0.94873867
   0.79024583  0.75480375  0.54948670
   0.79024583  0.25480375  0.04948669
   0.60297404  0.55537627  0.05616508
   0.31983379  0.32092653  0.40364568
   0.52688722  0.47274958  0.13780839
   0.29338292  0.18425049  0.30297842
   0.50267364  0.49502089  0.25090359
   0.00921921  0.95954459  0.03873642
   0.10474179  0.05379731  0.15062812
   0.60297404  0.05537627  0.55616506
   0.31983379  0.82092653  0.90364568
   0.52688722  0.97274961  0.63780837
   0.29338292  0.68425047  0.80297842
   0.50267364  0.99502092  0.75090362
   0.00921921  0.45954462  0.53873641
   0.10474179  0.55379737  0.65062815
   0.10410062  0.44413053  0.94489448
   0.82082666  0.67831653  0.59694634
   0.02760715  0.52786147  0.86242130
   0.79112102  0.81287760  0.69638861
   0.00282830  0.50455622  0.74812408
   0.50856482  0.04025746  0.96236228
   0.60538065  0.94612583  0.84940216
   0.10410062  0.94413056  0.44489445
   0.82082666  0.17831653  0.09694635
   0.02760715  0.02786149  0.36242130
   0.79112102  0.31287760  0.19638861
   0.00282830  0.00455625  0.24812409
   0.50856482  0.54025748  0.46236225
   0.60538065  0.44612589  0.34940219
   0.10991784  0.43648122  0.05446238
   0.82661452  0.67726933  0.40231997
   0.02683029  0.52457825  0.13795651
   0.79481224  0.81576772  0.30319685
   0.00192945  0.50511017  0.25076899
   0.50534074  0.04840654  0.04007177
   0.60727957  0.94453752  0.15128975
   0.10991784  0.93648119  0.55446242
   0.82661452  0.17726934  0.90232000
   0.02683029  0.02457822  0.63795648
   0.79481224  0.31576775  0.80319682
   0.00192945  0.00511017  0.75076899
   0.50534074  0.54840655  0.54007174
   0.60727957  0.44453752  0.65128978
   0.61086857  0.56414557  0.94665589
   0.32665960  0.32211663  0.59797590
   0.52693925  0.47521764  0.86218528
   0.29368643  0.18632976  0.69609826
   0.50260777  0.49537854  0.74826193
   0.00473085  0.95258571  0.96107247
   0.10831541  0.05632729  0.84873914
   0.61086857  0.06414552  0.44665595
   0.32665960  0.82211663  0.09797592
   0.52693925  0.97521761  0.36218525
   0.29368643  0.68632976  0.19609822
   0.50260777  0.99537854  0.24826190
   0.00473085  0.45258574  0.46107247
   0.10831541  0.55632731  0.34873920
   0.31689488  0.15946661  0.50069992
   0.31689488  0.65946667  1.00069995
   0.81806235  0.84021625  0.50105222
   0.81806235  0.34021631  0.00105222
   0.29444558  0.24958582  0.34666229
   0.29444558  0.74958582  0.84666232
   0.78989246  0.75287273  0.44908252
   0.78989246  0.25287273  0.94908249
BiTiFeO                                 
           1
     5.496062    0.000360    0.000137
     0.000370    5.490371   -0.003621
     0.001110    0.035609   40.883510
   Bi   Ti   O    Fe
  20  12  60   4
Direct configuration=     4
   0.25263888  0.24735480  0.10521996
   0.23976375  0.27151345  0.22066225
   0.25263888  0.74735480  0.60521998
   0.23976375  0.77151348  0.72066220
   0.75388441  0.75156549  0.89335882
   0.73245890  0.72416664  0.78175540
   0.75388441  0.25156549  0.39335884
   0.73245890  0.22416666  0.28175534
   0.75138616  0.75302904  0.10553235
   0.73840077  0.73005442  0.22042203
   0.75138616  0.25302907  0.60553237
   0.73840077  0.23005440  0.72042206
   0.24972793  0.24947704  0.89316114
   0.23414778  0.27853270  0.78196812
   0.24972793  0.74947707  0.39316117
   0.23414778  0.77853267  0.28196815
   0.24293550  0.24111989 -0.00162406
   0.24293550  0.74111989  0.49837594
   0.74469984  0.75860718  0.99645362
   0.74469984  0.25860718  0.49645356
   0.79530575  0.74979987  0.34713683
   0.79530575  0.24979987  0.84713683
   0.79535124  0.75077812  0.65392534
   0.79535124  0.25077813  0.15392535
   0.29108424  0.24662329  0.54939962
   0.29514927  0.24878495  0.65369395
   0.29514927  0.74878495  0.15369395
   0.29108424  0.74662328  0.04939961
   0.29071573  0.24472955  0.44889701
   0.29071573  0.74472955  0.94889701
   0.78967237  0.75518392  0.54920894
   0.78967237  0.25518392  0.04920894
   0.60155830  0.55470826  0.05609146
   0.31880089  0.31985228  0.40387873
   0.52658254  0.47301636  0.13769042
   0.29471531  0.18244086  0.30262679
   0.50312928  0.49476550  0.25101758
   0.01171950  0.95807312  0.03919469
   0.10481781  0.05368194  0.15038225
   0.60155830  0.05470826  0.55609144
   0.31880089  0.81985228  0.90387873
   0.52658254  0.97301639  0.63769041
   0.29471531  0.68244083  0.80262679
   0.50312928  0.99476553  0.75101761
   0.01171950  0.45807315  0.53919468
   0.10481781  0.55368200  0.65038228
   0.10521069  0.44508966  0.94557771
   0.82091282  0.67909269  0.59672245
   0.02641504  0.52712284  0.86260349
   0.79046363  0.81099276  0.69574034
   0.00249194  0.50349991  0.74826312
   0.50863266  0.03889798  0.96246367
   0.60638490  0.94736662  0.84961446
   0.10521069  0.94508969  0.44557768
   0.82091282  0.17909269  0.09672246
   0.02641504  0.02712286  0.36260349
   0.79046363  0.31099276  0.19574034
   0.00249194  0.00349994  0.24826313
   0.50863266  0.53889800  0.46246364
   0.60638490  0.44736668  0.34961449
   0.10944043  0.44209950  0.05468442
   0.82506737  0.67813663  0.40275054
   0.02686093  0.52476015  0.13780344
   0.79491518  0.81461040  0.30359964
   0.00163462  0.50579816  0.25086582
   0.50495223  0.04554581  0.04027094
   0.60656053  0.94423291  0.15095221
   0.10944043  0.94209947  0.55468446
   0.82506737  0.17813665  0.90275056
   0.02686093  0.02476012  0.63780341
   0.79491518  0.31461043  0.80359961
   0.00163462  0.00579817  0.75086582
   0.50495223  0.54554582  0.54027091
   0.60656053  0.44423291  0.65095224
   0.60881799  0.56342044  0.94713470
   0.32439960  0.32080340  0.59719020
   0.52835617  0.47412294  0.86230484
   0.29272927  0.18816390  0.69550797
   0.50306589  0.49546304  0.74838156
   0.00773958  0.95417673  0.96125992
   0.10713610  0.05772579  0.84902786
   0.60881799  0.06342040  0.44713476
   0.32439960  0.82080340  0.09719021
   0.52835617  0.97412291  0.36230481
   0.29272927  0.68816390  0.19550793
   0.50306589  0.99546304  0.24838153
   0.00773958  0.45417676  0.46125992
   0.10713610  0.55772581  0.34902792
   0.31701035  0.16203848  0.50117030
   0.31701035  0.66203854  1.00117032
   0.81855627  0.83794464  0.50128919
   0.81855627  0.33794470  0.00128919
   0.29385069  0.24864622  0.34610377
   0.29385069  0.74864622  0.84610380
   0.78974868  0.75238954  0.44866415
   0.78974868  0.25238954  0.94866412
BiTiFeO                                 
           1
     5.499391   -0.000363    0.000796
    -0.000352    5.493123   -0.002008
     0.006030    0.047698   40.969585
   Bi   Ti   O    Fe
  20  12  60   4
Direct configuration=     5
   0.25247706  0.24717348  0.10508770
   0.23981378  0.27159800  0.22068905
   0.25247706  0.74717348  0.60508772
   0.23981378  0.77159803  0.72068901
   0.75380872  0.75170539  0.89340317
   0.73177261  0.72464853  0.78171373
   0.75380872  0.25170539  0.39340320
   0.73177261  0.22464855  0.28171367
   0.75135361  0.75317575  0.10539965
   0.73888860  0.72993728  0.22041606
   0.75135361  0.25317578  0.60539967
   0.73888860  0.22993727  0.72041609
   0.24986585  0.24942956  0.89321889
   0.23408142  0.27887807  0.78194034
   0.24986585  0.74942959  0.39321892
   0.23408142  0.77887804  0.28194037
   0.24287473  0.24116715 -0.00163713
   0.24287473  0.74116715  0.49836287
   0.74483880  0.75840559  0.99649700
   0.74483880  0.25840559  0.49649694
   0.79531209  0.74958165  0.34727564
   0.79531209  0.24958165  0.84727564
   0.79542909  0.75030622  0.65351775
   0.79542909  0.25030624  0.15351777
   0.29124609  0.24691164  0.54943333
   0.29520976  0.24917297  0.65331934
   0.29520976  0.74917297  0.15331934
   0.29124609  0.74691162  0.04943332
   0.29085470  0.24502002  0.44906312
   0.29085470  0.74502002  0.94906312
   0.78963830  0.75491271  0.54923045
   0.78963830  0.25491271  0.04923044
   0.60186965  0.55405278  0.05607105
   0.31859430  0.31974740  0.40382944
   0.52664399  0.47309219  0.13775413
   0.29513892  0.18210033  0.30258009
   0.50332022  0.49479335  0.25108040
   0.01156079  0.95840987  0.03923790
   0.10471546  0.05348294  0.15039486
   0.60186965  0.05405279  0.55607103
   0.31859430  0.81974740  0.90382944
   0.52664399  0.97309222  0.63775411
   0.29513892  0.68210030  0.80258009
   0.50332022  0.99479338  0.75108043
   0.01156079  0.45840990  0.53923790
   0.10471546  0.55348299  0.65039489
   0.10522335  0.44494195  0.94570030
   0.82100420  0.67922514  0.59669482
   0.02658263  0.52722436  0.86254831
   0.79023561  0.81121382  0.69604910
   0.00234957  0.50333710  0.74834559
   0.50906576  0.03858941  0.96240263
   0.60607747  0.94733370  0.84961339
   0.10522335  0.94494198  0.44570027
   0.82100420  0.17922514  0.09669484
   0.02658263  0.02722438  0.36254831
   0.79023561  0.31121382  0.19604910
   0.00234957  0.00333713  0.24834561
   0.50906576  0.53858944  0.46240260
   0.60607747  0.44733376  0.34961342
   0.10854392  0.44249804  0.05475107
   0.82482314  0.67826499  0.40274764
   0.02691214  0.52475645  0.13785888
   0.79489497  0.81462536  0.30350906
   0.00162420  0.50580609  0.25092620
   0.50553925  0.04559673  0.04024537
   0.60634011  0.94443847  0.15093481
   0.10854392  0.94249801  0.55475111
   0.82482314  0.17826500  0.90274767
   0.02691214  0.02475642  0.63785885
   0.79489497  0.31462539  0.80350903
   0.00162420  0.00580610  0.75092620
   0.50553925  0.54559674  0.54024535
   0.60634011  0.44443847  0.65093484
   0.60862347  0.56301574  0.94718141
   0.32398473  0.32072985  0.59715414
   0.52836112  0.47426405  0.86225519
   0.29242009  0.18789500  0.69582866
   0.50317704  0.49536797  0.74844410
   0.00852592  0.95488251  0.96123147
   0.10712377  0.05744218  0.84904211
   0.60862347  0.06301570  0.44718147
   0.32398473  0.82072985  0.09715415
   0.52836112  0.97426402  0.36225516
   0.29242009  0.68789500  0.19582861
   0.50317704  0.99536797  0.24844407
   0.00852592  0.45488254  0.46123147
   0.10712377  0.55744220  0.34904217
   0.31723162  0.16242714  0.50105543
   0.31723162  0.66242720  1.00105546
   0.81873293  0.83739292  0.50121883
   0.81873293  0.33739298  0.00121883
   0.29376446  0.24874393  0.34603708
   0.29376446  0.74874393  0.84603711
   0.78952966  0.75228404  0.44870837
   0.78952966  0.25228404  0.94870834
BiTiFeO                                 
           1
     5.490189   -0.000854    0.001926
    -0.000843    5.483502   -0.001726
     0.014427    0.049704   40.994368
   Bi   Ti   O    Fe
  20  12  60   4
Direct configuration=     6
   0.25219543  0.24711848  0.10475809
   0.23986031  0.27187780  0.22076491
   0.25219543  0.74711848  0.60475810
   0.23986031  0.77187783  0.72076486
   0.75348194  0.75183763  0.89340287
   0.72994658  0.72621392  0.78168673
   0.75348194  0.25183763  0.39340290
   0.72994658  0.22621393  0.28168667
   0.75175196  0.75316495  0.10507361
   0.74051584  0.72953162  0.22040985
   0.75175196  0.25316498  0.60507364
   0.74051584  0.22953160  0.72040988
   0.25062376  0.24941337  0.89327332
   0.23389362  0.27967048  0.78194373
   0.25062376  0.74941340  0.39327335
   0.23389362  0.77967045  0.28194376
   0.24258856  0.24147528 -0.00189817
   0.24258856  0.74147528  0.49810183
   0.74570260  0.75760461  0.99646134
   0.74570260  0.25760461  0.49646128
   0.79537784  0.74985287  0.34719403
   0.79537784  0.24985287  0.84719403
   0.79541602  0.75082140  0.65373998
   0.79541602  0.25082142  0.15374000
   0.29147521  0.24751201  0.54937277
   0.29526759  0.24849074  0.65356191
   0.29526759  0.74849074  0.15356191
   0.29147521  0.74751199  0.04937276
   0.29145070  0.24568189  0.44915173
   0.29145070  0.74568189  0.94915173
   0.78997865  0.75411279  0.54911337
   0.78997865  0.25411279  0.04911336
   0.60184501  0.55270285  0.05600691
   0.31778860  0.31895768  0.40398012
   0.52660870  0.47330429  0.13777547
   0.29657078  0.18125000  0.30238949
   0.50373221  0.49504766  0.25124363
   0.01171456  0.95902607  0.03944833
   0.10450151  0.05311307  0.15023973
   0.60184501  0.05270285  0.55600689
   0.31778860  0.81895768  0.90398012
   0.52660870  0.97330432  0.63777545
   0.29657078  0.68124997  0.80238949
   0.50373221  0.99504769  0.75124366
   0.01171456  0.45902610  0.53944832
   0.10450151  0.55311312  0.65023976
   0.10530265  0.44442029  0.94622610
   0.82118546  0.67961206  0.59668019
   0.02688404  0.52756315  0.86243528
   0.78965151  0.80994147  0.69575802
   0.00193518  0.50310082  0.74857841
   0.51049677  0.03772955  0.96230085
   0.60521836  0.94702843  0.84970583
   0.10530265  0.94442032  0.44622607
   0.82118546  0.17961206  0.09668020
   0.02688404  0.02756317  0.36243528
   0.78965151  0.30994147  0.19575802
   0.00193518  0.00310085  0.24857842
   0.51049677  0.53772957  0.46230082
   0.60521836  0.44702849  0.34970586
   0.10617466  0.44462612  0.05496730
   0.82380695  0.67899923  0.40284639
   0.02685548  0.52482179  0.13785120
   0.79480017  0.81392238  0.30360721
   0.00165143  0.50568555  0.25110335
   0.50687131  0.04487724  0.04023069
   0.60575454  0.94485462  0.15067272
   0.10617466  0.94462609  0.55496735
   0.82380695  0.17899924  0.90284642
   0.02685548  0.02482176  0.63785117
   0.79480017  0.31392241  0.80360718
   0.00165143  0.00568556  0.75110335
   0.50687131  0.54487725  0.54023066
   0.60575454  0.44485462  0.65067275
   0.60813597  0.56178847  0.94744553
   0.32253130  0.32028240  0.59700714
   0.52819944  0.47456529  0.86216202
   0.29142791  0.18887747  0.69567279
   0.50338988  0.49498047  0.74860595
   0.01056838  0.95733198  0.96126507
   0.10713859  0.05680100  0.84919787
   0.60813597  0.06178842  0.44744559
   0.32253130  0.82028240  0.09700716
   0.52819944  0.97456526  0.36216199
   0.29142791  0.68887747  0.19567275
   0.50338988  0.99498047  0.24860592
   0.01056838  0.45733201  0.46126507
   0.10713859  0.55680103  0.34919793
   0.31780539  0.16403807  0.50093546
   0.31780539  0.66403813  1.00093548
   0.81924682  0.83544618  0.50113480
   0.81924682  0.33544624  0.00113480
   0.29350177  0.24883368  0.34581510
   0.29350177  0.74883368  0.84581513
   0.78917774  0.75209067  0.44870089
   0.78917774  0.25209067  0.94870086
BiTiFeO                                 
           1
     5.489519   -0.001831    0.004636
    -0.001819    5.482726   -0.002005
     0.034591    0.047588   41.128540
   Bi   Ti   O    Fe
  20  12  60   4
Direct configuration=     7
   0.25170720  0.24705343  0.10467258
   0.23982043  0.27196445  0.22088255
   0.25170720  0.74705343  0.60467260
   0.23982043  0.77196448  0.72088251
   0.75310462  0.75190505  0.89336713
   0.72874921  0.72692980  0.78170900
   0.75310462  0.25190505  0.39336716
   0.72874921  0.22692982  0.28170894
   0.75173437  0.75317996  0.10498135
   0.74135891  0.72952647  0.22049341
   0.75173437  0.25317999  0.60498137
   0.74135891  0.22952645  0.72049344
   0.25060701  0.24942366  0.89327396
   0.23383879  0.28028508  0.78197681
   0.25060701  0.74942368  0.39327399
   0.23383879  0.78028505  0.28197684
   0.24239667  0.24190307 -0.00208278
   0.24239667  0.74190307  0.49791722
   0.74626051  0.75693088  0.99645841
   0.74626051  0.25693088  0.49645835
   0.79548009  0.74994388  0.34720667
   0.79548009  0.24994388  0.84720667
   0.79551167  0.75019750  0.65325630
   0.79551167  0.25019751  0.15325632
   0.29176758  0.24767131  0.54939916
   0.29543717  0.24885476  0.65322120
   0.29543717  0.74885476  0.15322120
   0.29176758  0.74767129  0.04939915
   0.29170781  0.24577122  0.44926015
   0.29170781  0.74577122  0.94926015
   0.79024444  0.75373371  0.54914461
   0.79024444  0.25373371  0.04914461
   0.60126821  0.55207108  0.05591635
   0.31739066  0.31852820  0.40406944
   0.52652489  0.47342323  0.13778291
   0.29764769  0.18092949  0.30232281
   0.50393336  0.49532107  0.25125784
   0.01207324  0.95929730  0.03954498
   0.10442917  0.05290031  0.15013662
   0.60126821  0.05207109  0.55591633
   0.31739066  0.81852820  0.90406944
   0.52652489  0.97342326  0.63778290
   0.29764769  0.68092946  0.80232281
   0.50393336  0.99532110  0.75125787
   0.01207324  0.45929733  0.53954497
   0.10442917  0.55290036  0.65013665
   0.10566762  0.44435183  0.94654291
   0.82137751  0.67970187  0.59659120
   0.02696135  0.52764425  0.86237491
   0.78923828  0.80988843  0.69610163
   0.00168387  0.50313854  0.74866629
   0.51142973  0.03710296  0.96223693
   0.60485570  0.94711393  0.84978974
   0.10566762  0.94435186  0.44654288
   0.82137751  0.17970187  0.09659122
   0.02696135  0.02764428  0.36237491
   0.78923828  0.30988843  0.19610163
   0.00168387  0.00313857  0.24866631
   0.51142973  0.53710299  0.46223690
   0.60485570  0.44711399  0.34978977
   0.10489168  0.44630882  0.05504356
   0.82329552  0.67943657  0.40287127
   0.02678629  0.52493614  0.13784166
   0.79474761  0.81342664  0.30366913
   0.00163993  0.50546131  0.25114399
   0.50751631  0.04405664  0.04019827
   0.60542702  0.94506100  0.15049278
   0.10489168  0.94630879  0.55504360
   0.82329552  0.17943659  0.90287130
   0.02678629  0.02493611  0.63784163
   0.79474761  0.31342667  0.80366910
   0.00163993  0.00546131  0.75114399
   0.50751631  0.54405665  0.54019825
   0.60542702  0.44506100  0.65049281
   0.60788850  0.56122800  0.94758750
   0.32178716  0.32005284  0.59683493
   0.52806614  0.47461559  0.86211223
   0.29069803  0.18885155  0.69598386
   0.50363594  0.49460324  0.74863190
   0.01188667  0.95862189  0.96130534
   0.10700024  0.05654981  0.84933575
   0.60788850  0.06122796  0.44758756
   0.32178716  0.82005284  0.09683495
   0.52806614  0.97461556  0.36211220
   0.29069803  0.68885155  0.19598382
   0.50363594  0.99460324  0.24863187
   0.01188667  0.45862192  0.46130534
   0.10700024  0.55654984  0.34933581
   0.31824588  0.16505313  0.50089987
   0.31824588  0.66505319  1.00089990
   0.81971864  0.83438893  0.50108779
   0.81971864  0.33438899  0.00108779
   0.29338145  0.24869401  0.34566981
   0.29338145  0.74869401  0.84566983
   0.78917895  0.75196698  0.44873517
   0.78917895  0.25196698  0.94873514
BiTiFeO                                 
           1
     5.489759   -0.001493    0.004356
    -0.001482    5.482839   -0.001602
     0.032541    0.050619   41.089072
   Bi   Ti   O    Fe
  20  12  60   4
Direct configuration=     8
   0.25090838  0.24721871  0.10423665
   0.23968116  0.27218998  0.22098381
   0.25090838  0.74721871  0.60423666
   0.23968116  0.77219001  0.72098376
   0.75208064  0.75215548  0.89332790
   0.72543583  0.72941894  0.78175651
   0.75208064  0.25215548  0.39332792
   0.72543583  0.22941895  0.28175645
   0.75204344  0.75265082  0.10450857
   0.74420162  0.72942660  0.22051189
   0.75204344  0.25265085  0.60450859
   0.74420162  0.22942659  0.72051192
   0.25071851  0.24935026  0.89334883
   0.23390656  0.28145374  0.78203379
   0.25071851  0.74935029  0.39334886
   0.23390656  0.78145371  0.28203382
   0.24232232  0.24311307 -0.00266917
   0.24232232  0.74311307  0.49733083
   0.74799790  0.75501572  0.99650006
   0.74799790  0.25501572  0.49650000
   0.79562577  0.75009232  0.34744333
   0.79562577  0.25009232  0.84744333
   0.79528617  0.75050217  0.65318753
   0.79528617  0.25050218  0.15318755
   0.29267562  0.24861108  0.54927109
   0.29549267  0.24833419  0.65317024
   0.29549267  0.74833419  0.15317024
   0.29267562  0.74861106  0.04927108
   0.29284926  0.24647670  0.44967305
   0.29284926  0.74647670  0.94967305
   0.79069777  0.75242204  0.54900150
   0.79069777  0.25242204  0.04900149
   0.59972775  0.54985480  0.05567798
   0.31614031  0.31717419  0.40425751
   0.52624030  0.47359563  0.13771996
   0.30097031  0.18041016  0.30204446
   0.50436145  0.49612999  0.25142768
   0.01281652  0.96056190  0.03985790
   0.10400894  0.05233809  0.14974023
   0.59972775  0.04985481  0.55567796
   0.31614031  0.81717419  0.90425751
   0.52624030  0.97359566  0.63771995
   0.30097031  0.68041013  0.80204446
   0.50436145  0.99613002  0.75142771
   0.01281652  0.46056193  0.53985789
   0.10400894  0.55233815  0.64974026
   0.10652744  0.44363947  0.94751841
   0.82183570  0.67995916  0.59653209
   0.02722367  0.52811288  0.86215376
   0.78820312  0.80785639  0.69596230
   0.00093413  0.50313971  0.74906072
   0.51446791  0.03534187  0.96204037
   0.60336451  0.94725123  0.85003222
   0.10652744  0.94363950  0.44751838
   0.82183570  0.17995916  0.09653210
   0.02722367  0.02811290  0.36215376
   0.78820312  0.30785639  0.19596230
   0.00093413  0.00313974  0.24906074
   0.51446791  0.53534189  0.46204034
   0.60336451  0.44725129  0.35003225
   0.10045785  0.45075333  0.05531894
   0.82175543  0.68104037  0.40294332
   0.02638431  0.52528738  0.13773002
   0.79442816  0.81189822  0.30365919
   0.00157087  0.50503896  0.25142004
   0.51000828  0.04182814  0.04013642
   0.60439895  0.94578205  0.14985811
   0.10045785  0.95075330  0.55531898