BiTiFeO                                 
           1
     5.479338    0.000000    0.000000
     0.000000    5.473820    0.001552
     0.000000    0.073700   40.671280
   Bi   Ti   O    Fe
  20  12  60   4
Direct configuration=     1
   0.25163469  0.24552768  0.10456018
   0.23768441  0.27533320  0.21951799
   0.25163469  0.74552768  0.60456020
   0.23768441  0.77533323  0.71951795
   0.75163466  0.75447232  0.89543980
   0.73768437  0.72466677  0.78048205
   0.75163466  0.25447232  0.39543983
   0.73768437  0.22466679  0.28048199
   0.74778056  0.75425547  0.10488448
   0.73468602  0.72707325  0.21940872
   0.74778056  0.25425550  0.60488451
   0.73468602  0.22707324  0.71940875
   0.24778058  0.24574450  0.89511549
   0.23468603  0.27292678  0.78059125
   0.24778058  0.74574453  0.39511553
   0.23468603  0.77292675  0.28059128
   0.24248166  0.24192810  0.00106251
   0.24248166  0.74192810  0.50106251
   0.74248165  0.75807190  0.99893749
   0.74248165  0.25807190  0.49893743
   0.29556838  0.25003338  0.34690401
   0.29556838  0.75003338  0.84690404
   0.79474807  0.74971396  0.34751427
   0.79474807  0.24971396  0.84751427
   0.79556835  0.74996662  0.65309596
   0.79556835  0.24996664  0.15309598
   0.29474810  0.25028604  0.65248573
   0.29474810  0.75028604  0.15248573
   0.29145211  0.24496144  0.45021892
   0.29145211  0.74496144  0.95021892
   0.79145211  0.75503856  0.54978108
   0.79145211  0.25503856  0.04978108
   0.60797232  0.55333757  0.05623510
   0.32074291  0.32244712  0.40269166
   0.52769464  0.47232899  0.13806446
   0.29197162  0.18621907  0.30358261
   0.50278539  0.49499974  0.25136027
   0.00366211  0.96418035  0.03809405
   0.10417966  0.05360783  0.15095773
   0.60797232  0.05333758  0.55623508
   0.32074291  0.82244712  0.90269166
   0.52769464  0.97232902  0.63806444
   0.29197162  0.68621904  0.80358261
   0.50278539  0.99499977  0.75136030
   0.00366211  0.46418038  0.53809404
   0.10417966  0.55360788  0.65095776
   0.10797235  0.44666240  0.94376492
   0.82074291  0.67755288  0.59730834
   0.02769462  0.52767098  0.86193556
   0.79197168  0.81378096  0.69641739
   0.00278540  0.50500023  0.74863970
   0.50366211  0.03581963  0.96190596
   0.60417968  0.94639212  0.84904224
   0.10797235  0.94666243  0.44376490
   0.82074291  0.17755288  0.09730835
   0.02769462  0.02767100  0.36193556
   0.79197168  0.31378096  0.19641739
   0.00278540  0.00500026  0.24863972
   0.50366211  0.53581965  0.46190593
   0.60417968  0.44639218  0.34904227
   0.10746492  0.42657372  0.05429961
   0.82924741  0.67528647  0.40033671
   0.02685624  0.52419931  0.13827106
   0.79467112  0.81472349  0.30391791
   0.00275614  0.50483209  0.25127208
   0.50846183  0.05460011  0.03958693
   0.60779965  0.94555801  0.15167758
   0.10746492  0.92657369  0.55429965
   0.82924741  0.17528649  0.90033674
   0.02685624  0.02419928  0.63827103
   0.79467112  0.31472352  0.80391788
   0.00275614  0.00483209  0.75127208
   0.50846183  0.55460012  0.53958690
   0.60779965  0.44555801  0.65167761
   0.60746491  0.57342631  0.94570035
   0.32924739  0.32471353  0.59966326
   0.52685618  0.47580072  0.86172897
   0.29467115  0.18527651  0.69608212
   0.50275618  0.49516791  0.74872792
   0.00846184  0.94539988  0.96041310
   0.10779966  0.05444197  0.84832239
   0.60746491  0.07342626  0.44570041
   0.32924739  0.82471353  0.09966327
   0.52685618  0.97580069  0.36172894
   0.29467115  0.68527651  0.19608207
   0.50275618  0.99516791  0.24872789
   0.00846184  0.44539991  0.46041310
   0.10779966  0.55444199  0.34832245
   0.31750971  0.15670252  0.49889919
   0.31750971  0.65670258  0.99889922
   0.81750971  0.84329742  0.50110078
   0.81750971  0.34329748  0.00110078
   0.79018825  0.75150693  0.45036468
   0.79018825  0.25150693  0.95036465
   0.29018825  0.24849309  0.54963535
   0.29018825  0.74849307  0.04963534
BiTiFeO                                 
           1
     5.500746    0.000000    0.000000
     0.000000    5.496130   -0.000462
     0.000000    0.058999   40.837973
   Bi   Ti   O    Fe
  20  12  60   4
Direct configuration=     2
   0.25178607  0.24577361  0.10434838
   0.23761659  0.27527391  0.21951266
   0.25178607  0.74577361  0.60434840
   0.23761659  0.77527394  0.71951262
   0.75178604  0.75422639  0.89565160
   0.73761655  0.72472606  0.78048738
   0.75178604  0.25422639  0.39565163
   0.73761655  0.22472607  0.28048732
   0.74738310  0.75372577  0.10465163
   0.73463470  0.72705906  0.21940157
   0.74738310  0.25372580  0.60465166
   0.73463470  0.22705905  0.71940160
   0.24738312  0.24627420  0.89534834
   0.23463472  0.27294097  0.78059840
   0.24738312  0.74627423  0.39534837
   0.23463472  0.77294094  0.28059843
   0.24320916  0.24102111  0.00108095
   0.24320916  0.74102111  0.50108095
   0.74320915  0.75897889  0.99891905
   0.74320915  0.25897889  0.49891899
   0.29554558  0.24993944  0.34693641
   0.29554558  0.74993944  0.84693644
   0.79469402  0.75004240  0.34743058
   0.79469402  0.25004240  0.84743058
   0.79554555  0.75006056  0.65306356
   0.79554555  0.25006057  0.15306358
   0.29469405  0.24995760  0.65256942
   0.29469405  0.74995760  0.15256942
   0.29075150  0.24513396  0.45018557
   0.29075150  0.74513396  0.95018557
   0.79075150  0.75486604  0.54981443
   0.79075150  0.25486604  0.04981443
   0.60372931  0.55684067  0.05609468
   0.32087337  0.32235254  0.40263881
   0.52771843  0.47236095  0.13809935
   0.29195512  0.18623048  0.30356933
   0.50273063  0.49503113  0.25135398
   0.00919331  0.95936310  0.03829509
   0.10427135  0.05346441  0.15097773
   0.60372931  0.05684067  0.55609466
   0.32087337  0.82235254  0.90263881
   0.52771843  0.97236098  0.63809933
   0.29195512  0.68623045  0.80356933
   0.50273063  0.99503116  0.75135401
   0.00919331  0.45936313  0.53829508
   0.10427135  0.55346446  0.65097776
   0.10372934  0.44315930  0.94390534
   0.82087337  0.67764746  0.59736119
   0.02771840  0.52763902  0.86190067
   0.79195518  0.81376955  0.69643067
   0.00273065  0.50496884  0.74864599
   0.50919331  0.04063687  0.96170492
   0.60427136  0.94653554  0.84902224
   0.10372934  0.94315933  0.44390531
   0.82087337  0.17764746  0.09736120
   0.02771840  0.02763904  0.36190067
   0.79195518  0.31376955  0.19643067
   0.00273065  0.00496887  0.24864600
   0.50919331  0.54063690  0.46170489
   0.60427136  0.44653560  0.34902227
   0.11225860  0.43557799  0.05427925
   0.82809205  0.67645203  0.40142827
   0.02700066  0.52428594  0.13828457
   0.79469633  0.81463199  0.30393701
   0.00269323  0.50483068  0.25126782
   0.50456569  0.04835160  0.03964129
   0.60749058  0.94545198  0.15167224
   0.11225860  0.93557796  0.55427929
   0.82809205  0.17645205  0.90142830
   0.02700066  0.02428591  0.63828454
   0.79469633  0.31463202  0.80393698
   0.00269323  0.00483069  0.75126782
   0.50456569  0.54835161  0.53964127
   0.60749058  0.44545198  0.65167227
   0.61225859  0.56442204  0.94572071
   0.32809202  0.32354797  0.59857170
   0.52700061  0.47571409  0.86171546
   0.29469636  0.18536801  0.69606302
   0.50269327  0.49516932  0.74873218
   0.00456569  0.95164839  0.96035873
   0.10749059  0.05454800  0.84832773
   0.61225859  0.06442199  0.44572077
   0.32809202  0.82354797  0.09857171
   0.52700061  0.97571406  0.36171543
   0.29469636  0.68536801  0.19606298
   0.50269327  0.99516932  0.24873215
   0.00456569  0.45164842  0.46035873
   0.10749059  0.55454802  0.34832779
   0.31788305  0.15842504  0.49969452
   0.31788305  0.65842510  0.99969455
   0.81788305  0.84157490  0.50030545
   0.81788305  0.34157496  0.00030545
   0.78922740  0.75268153  0.45017495
   0.78922740  0.25268153  0.95017492
   0.28922740  0.24731848  0.54982508
   0.28922740  0.74731847  0.04982506
BiTiFeO                                 
           1
     5.500521    0.000000    0.000000
     0.000000    5.495163   -0.001510
     0.000000    0.051205   40.760260
   Bi   Ti   O    Fe
  20  12  60   4
Direct configuration=     3
   0.25251581  0.24592426  0.10416352
   0.23784011  0.27470649  0.21935041
   0.25251581  0.74592426  0.60416354
   0.23784011  0.77470652  0.71935036
   0.75251578  0.75407574  0.89583646
   0.73784007  0.72529348  0.78064964
   0.75251578  0.25407574  0.39583649
   0.73784007  0.22529350  0.28064958
   0.74757082  0.75326753  0.10445182
   0.73500920  0.72751038  0.21923543
   0.74757082  0.25326756  0.60445184
   0.73500920  0.22751036  0.71923546
   0.24757084  0.24673244  0.89554816
   0.23500922  0.27248965  0.78076454
   0.24757084  0.74673247  0.39554819
   0.23500922  0.77248962  0.28076457
   0.24359534  0.24065982  0.00103478
   0.24359534  0.74065982  0.50103478
   0.74359532  0.75934018  0.99896522
   0.74359532  0.25934018  0.49896516
   0.29564901  0.25013332  0.34705695
   0.29564901  0.75013332  0.84705698
   0.79464130  0.74981960  0.34764335
   0.79464130  0.24981960  0.84764335
   0.79564898  0.74986668  0.65294302
   0.79564898  0.24986669  0.15294304
   0.29464133  0.25018040  0.65235665
   0.29464133  0.75018040  0.15235665
   0.29037333  0.24489118  0.45040461
   0.29037333  0.74489118  0.95040461
   0.79037333  0.75510882  0.54959539
   0.79037333  0.25510882  0.04959538
   0.60436444  0.55564742  0.05599739
   0.32080049  0.32168774  0.40265793
   0.52752072  0.47236948  0.13810939
   0.29180532  0.18619268  0.30335482
   0.50256430  0.49508705  0.25138352
   0.00899287  0.95998773  0.03842986
   0.10431813  0.05338206  0.15101623
   0.60436444  0.05564743  0.55599737
   0.32080049  0.82168774  0.90265793
   0.52752072  0.97236951  0.63810937
   0.29180532  0.68619265  0.80335482
   0.50256430  0.99508708  0.75138355
   0.00899287  0.45998776  0.53842986
   0.10431813  0.55338212  0.65101626
   0.10436447  0.44435255  0.94400263
   0.82080049  0.67831226  0.59734207
   0.02752070  0.52763049  0.86189063
   0.79180538  0.81380735  0.69664518
   0.00256431  0.50491292  0.74861645
   0.50899288  0.04001225  0.96157014
   0.60431815  0.94661788  0.84898374
   0.10436447  0.94435258  0.44400260
   0.82080049  0.17831226  0.09734208
   0.02752070  0.02763051  0.36189063
   0.79180538  0.31380735  0.19664518
   0.00256431  0.00491295  0.24861647
   0.50899288  0.54001227  0.46157011
   0.60431815  0.44661794  0.34898377
   0.11081167  0.43630539  0.05430472
   0.82747997  0.67676147  0.40160440
   0.02696094  0.52435817  0.13829645
   0.79453599  0.81469298  0.30367539
   0.00251850  0.50482868  0.25129254
   0.50588517  0.04799385  0.03971917
   0.60709895  0.94527880  0.15168004
   0.11081167  0.93630536  0.55430476
   0.82747997  0.17676149  0.90160443
   0.02696094  0.02435814  0.63829642
   0.79453599  0.31469301  0.80367536
   0.00251850  0.00482869  0.75129254
   0.50588517  0.54799386  0.53971914
   0.60709895  0.44527880  0.65168007
   0.61081165  0.56369464  0.94569524
   0.32747994  0.32323853  0.59839557
   0.52696088  0.47564186  0.86170358
   0.29453602  0.18530702  0.69632464
   0.50251853  0.49517132  0.74870746
   0.00588517  0.95200614  0.96028086
   0.10709896  0.05472117  0.84831993
   0.61081165  0.06369459  0.44569530
   0.32747994  0.82323853  0.09839559
   0.52696088  0.97564183  0.36170355
   0.29453602  0.68530702  0.19632460
   0.50251853  0.99517132  0.24870743
   0.00588517  0.45200617  0.46028086
   0.10709896  0.55472120  0.34831999
   0.31800521  0.15955028  0.49964311
   0.31800521  0.65955034  0.99964314
   0.81800521  0.84044966  0.50035686
   0.81800521  0.34044972  0.00035686
   0.78914224  0.75261655  0.45012860
   0.78914224  0.25261655  0.95012857
   0.28914224  0.24738346  0.54987143
   0.28914224  0.74738345  0.04987142
BiTiFeO                                 
           1
     5.490317    0.000000    0.000000
     0.000000    5.484281   -0.000302
     0.000000    0.060064   40.719397
   Bi   Ti   O    Fe
  20  12  60   4
Direct configuration=     4
   0.25279977  0.24605350  0.10403313
   0.23791885  0.27435810  0.21934019
   0.25279977  0.74605350  0.60403314
   0.23791885  0.77435813  0.71934014
   0.75279974  0.75394650  0.89596686
   0.73791880  0.72564187  0.78065986
   0.75279974  0.25394650  0.39596689
   0.73791880  0.22564189  0.28065980
   0.74748103  0.75285650  0.10431232
   0.73516140  0.72774669  0.21922429
   0.74748103  0.25285653  0.60431235
   0.73516140  0.22774668  0.71922432
   0.24748105  0.24714347  0.89568765
   0.23516142  0.27225334  0.78077568
   0.24748105  0.74714350  0.39568768
   0.23516142  0.77225331  0.28077571
   0.24398829  0.24031711  0.00099906
   0.24398829  0.74031711  0.50099906
   0.74398827  0.75968289  0.99900094
   0.74398827  0.25968289  0.49900088
   0.29576408  0.25012540  0.34688488
   0.29576408  0.75012540  0.84688491
   0.79459071  0.75000242  0.34746476
   0.79459071  0.25000242  0.84746476
   0.79576405  0.74987460  0.65311509
   0.79576405  0.24987462  0.15311510
   0.29459074  0.24999758  0.65253524
   0.29459074  0.74999758  0.15253524
   0.29031465  0.24472051  0.45056394
   0.29031465  0.74472051  0.95056394
   0.79031465  0.75527949  0.54943606
   0.79031465  0.25527949  0.04943605
   0.60482451  0.55435628  0.05584573
   0.32081299  0.32101909  0.40276778
   0.52733659  0.47241049  0.13805538
   0.29171136  0.18661328  0.30347307
   0.50253355  0.49514799  0.25138590
   0.00901905  0.96069430  0.03855954
   0.10445784  0.05333574  0.15096646
   0.60482451  0.05435628  0.55584571
   0.32081299  0.82101909  0.90276778
   0.52733659  0.97241052  0.63805537
   0.29171136  0.68661325  0.80347307
   0.50253355  0.99514802  0.75138593
   0.00901905  0.46069433  0.53855954
   0.10445784  0.55333579  0.65096649
   0.10482454  0.44564369  0.94415429
   0.82081299  0.67898091  0.59723222
   0.02733657  0.52758948  0.86194463
   0.79171142  0.81338675  0.69652693
   0.00253356  0.50485198  0.74861407
   0.50901906  0.03930568  0.96144046
   0.60445786  0.94666421  0.84903351
   0.10482454  0.94564372  0.44415426
   0.82081299  0.17898091  0.09723223
   0.02733657  0.02758950  0.36194463
   0.79171142  0.31338675  0.19652693
   0.00253356  0.00485201  0.24861408
   0.50901906  0.53930570  0.46144043
   0.60445786  0.44666427  0.34903354
   0.10920591  0.43744237  0.05431370
   0.82689374  0.67709391  0.40185995
   0.02693951  0.52446647  0.13824383
   0.79441093  0.81423112  0.30380208
   0.00248644  0.50480033  0.25129509
   0.50732181  0.04737516  0.03976922
   0.60672964  0.94514505  0.15158626
   0.10920591  0.93744234  0.55431375
   0.82689374  0.17709392  0.90185998
   0.02693951  0.02446644  0.63824380
   0.79441093  0.31423115  0.80380205
   0.00248644  0.00480033  0.75129509
   0.50732181  0.54737517  0.53976919
   0.60672964  0.44514505  0.65158629
   0.60920589  0.56255766  0.94568625
   0.32689371  0.32290609  0.59814002
   0.52693946  0.47553356  0.86175620
   0.29441096  0.18576888  0.69619795
   0.50248647  0.49519967  0.74870491
   0.00732182  0.95262483  0.96023081
   0.10672965  0.05485493  0.84841371
   0.60920589  0.06255762  0.44568631
   0.32689371  0.82290609  0.09814004
   0.52693946  0.97553353  0.36175617
   0.29441096  0.68576888  0.19619790
   0.50248647  0.99519967  0.24870488
   0.00732182  0.45262486  0.46023081
   0.10672965  0.55485495  0.34841377
   0.31834430  0.16078088  0.49961141
   0.31834430  0.66078094  0.99961144
   0.81834430  0.83921906  0.50038856
   0.81834430  0.33921912  0.00038856
   0.78895286  0.75267261  0.45006782
   0.78895286  0.25267261  0.95006779
   0.28895286  0.24732741  0.54993221
   0.28895286  0.74732739  0.04993220
BiTiFeO                                 
           1
     5.498398    0.000000    0.000000
     0.000000    5.492379   -0.000751
     0.000000    0.056819   40.713397
   Bi   Ti   O    Fe
  20  12  60   4
Direct configuration=     5
   0.25239542  0.24602832  0.10386250
   0.23797245  0.27398589  0.21936403
   0.25239542  0.74602832  0.60386252
   0.23797245  0.77398592  0.71936398
   0.75239539  0.75397168  0.89613748
   0.73797240  0.72601408  0.78063602
   0.75239539  0.25397168  0.39613751
   0.73797240  0.22601409  0.28063596
   0.74729788  0.75275703  0.10414065
   0.73523859  0.72796617  0.21924866
   0.74729788  0.25275706  0.60414067
   0.73523859  0.22796616  0.71924869
   0.24729790  0.24724294  0.89585933
   0.23523860  0.27203386  0.78075131
   0.24729790  0.74724297  0.39585936
   0.23523860  0.77203383  0.28075134
   0.24450492  0.24004164  0.00095576
   0.24450492  0.74004164  0.50095576
   0.74450491  0.75995836  0.99904424
   0.74450491  0.25995836  0.49904418
   0.29588193  0.25074277  0.34726953
   0.29588193  0.75074277  0.84726956
   0.79452503  0.74983686  0.34769884
   0.79452503  0.24983686  0.84769884
   0.79588190  0.74925723  0.65273044
   0.79588190  0.24925725  0.15273045
   0.29452506  0.25016314  0.65230116
   0.29452506  0.75016314  0.15230116
   0.29089373  0.24511844  0.45059457
   0.29089373  0.74511844  0.95059457
   0.79089373  0.75488156  0.54940543
   0.79089373  0.25488156  0.04940542
   0.60418585  0.55396234  0.05564589
   0.32095640  0.32066180  0.40282884
   0.52730954  0.47245878  0.13803081
   0.29154834  0.18656912  0.30322175
   0.50259458  0.49524380  0.25137804
   0.00980299  0.96109507  0.03864705
   0.10454781  0.05336908  0.15093632
   0.60418585  0.05396235  0.55564587
   0.32095640  0.82066180  0.90282884
   0.52730954  0.97245881  0.63803079
   0.29154834  0.68656909  0.80322175
   0.50259458  0.99524383  0.75137807
   0.00980299  0.46109510  0.53864704
   0.10454781  0.55336913  0.65093635
   0.10418588  0.44603763  0.94435413
   0.82095640  0.67933820  0.59717116
   0.02730952  0.52754119  0.86196921
   0.79154840  0.81343091  0.69677825
   0.00259460  0.50475617  0.74862193
   0.50980299  0.03890491  0.96135296
   0.60454782  0.94663087  0.84906365
   0.10418588  0.94603766  0.44435410
   0.82095640  0.17933820  0.09717118
   0.02730952  0.02754121  0.36196921
   0.79154840  0.31343091  0.19677825
   0.00259460  0.00475620  0.24862194
   0.50980299  0.53890493  0.46135293
   0.60454782  0.44663093  0.34906368
   0.10819029  0.43929632  0.05431571
   0.82642887  0.67747938  0.40208479
   0.02690069  0.52459053  0.13821493
   0.79422245  0.81422257  0.30360932
   0.00253177  0.50472193  0.25129119
   0.50813689  0.04597030  0.03974603
   0.60644877  0.94526889  0.15149512
   0.10819029  0.93929629  0.55431575
   0.82642887  0.17747939  0.90208482
   0.02690069  0.02459050  0.63821490
   0.79422245  0.31422259  0.80360929
   0.00253177  0.00472194  0.75129119
   0.50813689  0.54597030  0.53974600
   0.60644877  0.44526889  0.65149514
   0.60819028  0.56070371  0.94568425
   0.32642884  0.32252062  0.59791518
   0.52690064  0.47540950  0.86178510
   0.29422248  0.18577743  0.69639071
   0.50253180  0.49527807  0.74870881
   0.00813689  0.95402970  0.96025400
   0.10644878  0.05473109  0.84850486
   0.60819028  0.06070366  0.44568431
   0.32642884  0.82252062  0.09791520
   0.52690064  0.97540947  0.36178507
   0.29422248  0.68577743  0.19639067
   0.50253180  0.99527807  0.24870878
   0.00813689  0.45402973  0.46025400
   0.10644878  0.55473111  0.34850491
   0.31889485  0.16190632  0.49971760
   0.31889485  0.66190638  0.99971763
   0.81889485  0.83809362  0.50028237
   0.81889485  0.33809368  0.00028237
   0.78858979  0.75278847  0.45005244
   0.78858979  0.25278847  0.95005241
   0.28858979  0.24721155  0.54994759
   0.28858979  0.74721153  0.04994758
BiTiFeO                                 
           1
     5.496177    0.000000    0.000000
     0.000000    5.489275   -0.001298
     0.000000    0.052754   40.676593
   Bi   Ti   O    Fe
  20  12  60   4
Direct configuration=     6
   0.25249370  0.24616760  0.10378963
   0.23803236  0.27371821  0.21933800
   0.25249370  0.74616760  0.60378964
   0.23803236  0.77371824  0.71933796
   0.75249367  0.75383240  0.89621036
   0.73803232  0.72628176  0.78066204
   0.75249367  0.25383240  0.39621039
   0.73803232  0.22628177  0.28066198
   0.74734666  0.75248780  0.10405423
   0.73542745  0.72808136  0.21921927
   0.74734666  0.25248783  0.60405425
   0.73542745  0.22808134  0.71921930
   0.24734667  0.24751217  0.89594575
   0.23542747  0.27191867  0.78078070
   0.24734667  0.74751220  0.39594578
   0.23542747  0.77191864  0.28078073
   0.24482673  0.24001542  0.00090998
   0.24482673  0.74001542  0.50090998
   0.74482671  0.75998458  0.99909002
   0.74482671  0.25998458  0.49908996
   0.29581224  0.25044140  0.34704276
   0.29581224  0.75044140  0.84704279
   0.79449631  0.75016869  0.34752991
   0.79449631  0.25016869  0.84752991
   0.79581221  0.74955860  0.65295721
   0.79581221  0.24955862  0.15295722
   0.29449634  0.24983131  0.65247009
   0.29449634  0.74983131  0.15247009
   0.29091674  0.24514408  0.45065771
   0.29091674  0.74514408  0.95065771
   0.79091674  0.75485592  0.54934229
   0.79091674  0.25485592  0.04934229
   0.60392443  0.55361827  0.05553736
   0.32097030  0.32042290  0.40283741
   0.52720648  0.47246583  0.13796288
   0.29147794  0.18713054  0.30342650
   0.50259351  0.49533257  0.25138112
   0.01012089  0.96140815  0.03869355
   0.10462962  0.05345761  0.15086971
   0.60392443  0.05361828  0.55553733
   0.32097030  0.82042290  0.90283741
   0.52720648  0.97246586  0.63796286
   0.29147794  0.68713051  0.80342650
   0.50259351  0.99533260  0.75138115
   0.01012089  0.46140818  0.53869354
   0.10462962  0.55345766  0.65086974
   0.10392446  0.44638170  0.94446267
   0.82097030  0.67957710  0.59716259
   0.02720645  0.52753414  0.86203714
   0.79147800  0.81286949  0.69657350
   0.00259352  0.50466740  0.74861885
   0.51012089  0.03859183  0.96130646
   0.60462963  0.94654234  0.84913026
   0.10392446  0.94638173  0.44446264
   0.82097030  0.17957710  0.09716260
   0.02720645  0.02753416  0.36203714
   0.79147800  0.31286949  0.19657350
   0.00259352  0.00466743  0.24861887
   0.51012089  0.53859185  0.46130643
   0.60462963  0.44654240  0.34913029
   0.10749845  0.44005396  0.05431545
   0.82610279  0.67768702  0.40217215
   0.02678362  0.52465932  0.13814601
   0.79407572  0.81375994  0.30373642
   0.00252487  0.50469655  0.25129418
   0.50868475  0.04529760  0.03973405
   0.60631604  0.94522618  0.15139046
   0.10749845  0.94005393  0.55431549
   0.82610279  0.17768704  0.90217218
   0.02678362  0.02465929  0.63814598
   0.79407572  0.31375997  0.80373639
   0.00252487  0.00469656  0.75129418
   0.50868475  0.54529761  0.53973402
   0.60631604  0.44522618  0.65139049
   0.60749844  0.55994607  0.94568451
   0.32610276  0.32231298  0.59782782
   0.52678356  0.47534071  0.86185402
   0.29407575  0.18624006  0.69626361
   0.50252490  0.49530345  0.74870582
   0.00868475  0.95470239  0.96026598
   0.10631604  0.05477380  0.84860951
   0.60749844  0.05994603  0.44568457
   0.32610276  0.82231298  0.09782784
   0.52678356  0.97534068  0.36185399
   0.29407575  0.68624006  0.19626356
   0.50252490  0.99530345  0.24870579
   0.00868475  0.45470242  0.46026598
   0.10631604  0.55477382  0.34860957
   0.31912978  0.16250728  0.49974837
   0.31912978  0.66250734  0.99974840
   0.81912978  0.83749266  0.50025160
   0.81912978  0.33749272  0.00025160
   0.78860849  0.75279199  0.45007056
   0.78860849  0.25279199  0.95007053
   0.28860849  0.24720803  0.54992947
   0.28860849  0.74720801  0.04992946
BiTiFeO                                 
           1
     5.497927    0.000000    0.000000
     0.000000    5.491297   -0.000825
     0.000000    0.056286   40.691998
   Bi   Ti   O    Fe
  20  12  60   4
Direct configuration=     7
   0.25217745  0.24618180  0.10359677
   0.23811360  0.27319713  0.21933047
   0.25217745  0.74618180  0.60359679
   0.23811360  0.77319716  0.71933043
   0.75217742  0.75381820  0.89640321
   0.73811355  0.72680284  0.78066957
   0.75217742  0.25381820  0.39640324
   0.73811355  0.22680285  0.28066951
   0.74691187  0.75208430  0.10380865
   0.73572398  0.72828279  0.21920949
   0.74691187  0.25208432  0.60380867
   0.73572398  0.22828277  0.71920952
   0.24691188  0.24791568  0.89619133
   0.23572399  0.27171724  0.78079048
   0.24691188  0.74791570  0.39619136
   0.23572399  0.77171721  0.28079051
   0.24564619  0.24014650  0.00076481
   0.24564619  0.74014650  0.50076481
   0.74564617  0.75985350  0.99923519
   0.74564617  0.25985350  0.49923513
   0.29576081  0.25067017  0.34716377
   0.29576081  0.75067017  0.84716380
   0.79441052  0.75018594  0.34762910
   0.79441052  0.25018594  0.84762910
   0.79576078  0.74932983  0.65283620
   0.79576078  0.24932984  0.15283621
   0.29441055  0.24981406  0.65237090
   0.29441055  0.74981406  0.15237090
   0.29090243  0.24523029  0.45079035
   0.29090243  0.74523029  0.95079035
   0.79090243  0.75476971  0.54920965
   0.79090243  0.25476971  0.04920964
   0.60336429  0.55226453  0.05521361
   0.32114448  0.31994773  0.40291017
   0.52705298  0.47252493  0.13782409
   0.29123234  0.18783548  0.30347528
   0.50267905  0.49553336  0.25137336
   0.01101358  0.96258744  0.03878339
   0.10486700  0.05356183  0.15073272
   0.60336429  0.05226454  0.55521359
   0.32114448  0.81994773  0.90291017
   0.52705298  0.97252496  0.63782408
   0.29123234  0.68783545  0.80347528
   0.50267905  0.99553339  0.75137339
   0.01101358  0.46258747  0.53878338
   0.10486700  0.55356188  0.65073275
   0.10336432  0.44773544  0.94478641
   0.82114448  0.68005227  0.59708983
   0.02705296  0.52747504  0.86217592
   0.79123240  0.81216455  0.69652472
   0.00267906  0.50446661  0.74862661
   0.51101359  0.03741254  0.96121662
   0.60486702  0.94643812  0.84926725
   0.10336432  0.94773547  0.44478638
   0.82114448  0.18005227  0.09708985
   0.02705296  0.02747507  0.36217592
   0.79123240  0.31216455  0.19652472
   0.00267906  0.00446664  0.24862663
   0.51101359  0.53741256  0.46121659
   0.60486702  0.44643818  0.34926728
   0.10531369  0.44196578  0.05431309
   0.82546432  0.67807035  0.40235853
   0.02654610  0.52487595  0.13800732
   0.79368558  0.81316426  0.30372739
   0.00264609  0.50452950  0.25129048
   0.51064874  0.04365271  0.03965404
   0.60596407  0.94526014  0.15113523
   0.10531369  0.94196575  0.55431313
   0.82546432  0.17807037  0.90235856
   0.02654610  0.02487592  0.63800729
   0.79368558  0.31316429  0.80372736
   0.00264609  0.00452950  0.75129048
   0.51064874  0.54365272  0.53965401
   0.60596407  0.44526014  0.65113526
   0.60531368  0.55803425  0.94568687
   0.32546429  0.32192965  0.59764144
   0.52654604  0.47512408  0.86199271
   0.29368561  0.18683574  0.69627264
   0.50264612  0.49547050  0.74870952
   0.01064875  0.95634728  0.96034599
   0.10596408  0.05473984  0.84886474
   0.60531368  0.05803420  0.44568693
   0.32546429  0.82192965  0.09764146
   0.52654604  0.97512405  0.36199268
   0.29368561  0.68683574  0.19627260
   0.50264612  0.99547050  0.24870949
   0.01064875  0.45634731  0.46034599
   0.10596408  0.55473986  0.34886480
   0.31998988  0.16402338  0.49980420
   0.31998988  0.66402344  0.99980423
   0.81998988  0.83597656  0.50019577
   0.81998988  0.33597662  0.00019577
   0.78874078  0.75276070  0.45014350
   0.78874078  0.25276070  0.95014347
   0.28874078  0.24723931  0.54985653
   0.28874078  0.74723930  0.04985652
BiTiFeO                                 
           1
     5.497698    0.000000    0.000000
     0.000000    5.490858   -0.001091
     0.000000    0.054320   40.688113
   Bi   Ti   O    Fe
  20  12  60   4
Direct configuration=     8
   0.25204504  0.24618496  0.10361168
   0.23813281  0.27328562  0.21931885
   0.25204504  0.74618496  0.60361169
   0.23813281  0.77328565  0.71931881
   0.75204501  0.75381504  0.89638831
   0.73813276  0.72671435  0.78068119
   0.75204501  0.25381504  0.39638834
   0.73813276  0.22671437  0.28068113
   0.74695231  0.75214944  0.10382373
   0.73570331  0.72822098  0.21920406
   0.74695231  0.25214947  0.60382375
   0.73570331  0.22822096  0.71920409
   0.24695233  0.24785053  0.89617625
   0.23570332  0.27177905  0.78079591
   0.24695233  0.74785056  0.39617628
   0.23570332  0.77177902  0.28079594
   0.24561358  0.24018749  0.00075966
   0.24561358  0.74018749  0.50075966
   0.74561357  0.75981251  0.99924034
   0.74561357  0.25981251  0.49924028
   0.29575252  0.25063049  0.34719316
   0.29575252  0.75063049  0.84719319
   0.79436352  0.75024716  0.34761072
   0.79436352  0.25024716  0.84761072
   0.79575249  0.74936951  0.65280681
   0.79575249  0.24936953  0.15280683
   0.29436355  0.24975284  0.65238928
   0.29436355  0.74975284  0.15238928
   0.29116647  0.24538315  0.45075623
   0.29116647  0.74538315  0.95075623
   0.79116647  0.75461685  0.54924377
   0.79116647  0.25461685  0.04924377
   0.60309088  0.55254376  0.05522262
   0.32110362  0.32008659  0.40290785
   0.52704796  0.47251311  0.13781587
   0.29122114  0.18784312  0.30348172
   0.50269073  0.49552590  0.25137020
   0.01115677  0.96247726  0.03874909
   0.10483649  0.05363261  0.15072516
   0.60309088  0.05254377  0.55522260
   0.32110362  0.82008659  0.90290785
   0.52704796  0.97251314  0.63781586
   0.29122114  0.68784309  0.80348172
   0.50269073  0.99552592  0.75137023
   0.01115677  0.46247729  0.53874908
   0.10483649  0.55363266  0.65072519
   0.10309091  0.44745621  0.94477740
   0.82110362  0.67991341  0.59709215
   0.02704793  0.52748686  0.86218414
   0.79122120  0.81215691  0.69651828
   0.00269074  0.50447408  0.74862977
   0.51115677  0.03752272  0.96125092
   0.60483651  0.94636734  0.84927481
   0.10309091  0.94745624  0.44477737
   0.82110362  0.17991341  0.09709217
   0.02704793  0.02748688  0.36218414
   0.79122120  0.31215691  0.19651828
   0.00269074  0.00447411  0.24862979
   0.51115677  0.53752274  0.46125089
   0.60483651  0.44636740  0.34927484
   0.10557450  0.44193002  0.05430467
   0.82560479  0.67805121  0.40233122
   0.02651768  0.52489318  0.13799928
   0.79369331  0.81312037  0.30377490
   0.00265593  0.50450624  0.25128855
   0.51043388  0.04359016  0.03962693
   0.60604719  0.94524508  0.15112819
   0.10557450  0.94192999  0.55430471