       N       E                     dE             d eps       ncg     rms          rms(c)
DAV:   1     0.550288682261E+04    0.55029E+04   -0.19762E+05 10752   0.125E+03
DAV:   2     0.480115544795E+03   -0.50228E+04   -0.46190E+04 11160   0.348E+02
DAV:   3    -0.721527804224E+03   -0.12016E+04   -0.11646E+04 12804   0.178E+02
DAV:   4    -0.824003558033E+03   -0.10248E+03   -0.10105E+03 16140   0.594E+01
DAV:   5    -0.827707627506E+03   -0.37041E+01   -0.36617E+01 16980   0.127E+01
DAV:   6    -0.827875008262E+03   -0.16738E+00   -0.16617E+00 17016   0.237E+00
DAV:   7    -0.827883531602E+03   -0.85233E-02   -0.84954E-02 17052   0.552E-01
DAV:   8    -0.827884080011E+03   -0.54841E-03   -0.54754E-03 14100   0.122E-01
DAV:   9    -0.827884118757E+03   -0.38746E-04   -0.38690E-04 10200   0.374E-02
DAV:  10    -0.827884122834E+03   -0.40769E-05   -0.40618E-05  8856   0.171E-02
DAV:  11    -0.827884124437E+03   -0.16030E-05   -0.15972E-05  8232   0.119E-02
DAV:  12    -0.827884125365E+03   -0.92830E-06   -0.92445E-06  8064   0.890E-03    0.114E+02
DAV:  13    -0.646378021847E+03    0.18151E+03   -0.12901E+03 16068   0.818E+01    0.921E+01
DAV:  14    -0.896947804404E+03   -0.25057E+03   -0.38250E+03 18084   0.162E+02    0.196E+02
DAV:  15    -0.792156235304E+03    0.10479E+03   -0.11840E+03 16716   0.755E+01    0.120E+02
DAV:  16    -0.676314104331E+03    0.11584E+03   -0.30992E+02 17244   0.791E+01    0.597E+01
DAV:  17    -0.648255911230E+03    0.28058E+02   -0.12208E+02 17076   0.423E+01    0.560E+01
DAV:  18    -0.639029675992E+03    0.92262E+01   -0.34102E+01 15984   0.182E+01    0.388E+01
DAV:  19    -0.631625104905E+03    0.74046E+01   -0.22137E+01 16080   0.222E+01    0.272E+01
DAV:  20    -0.628718968769E+03    0.29061E+01   -0.28685E+01 15348   0.121E+01    0.274E+01
DAV:  21    -0.626271676443E+03    0.24473E+01   -0.30429E+00 17208   0.596E+00    0.277E+01
DAV:  22    -0.624765197271E+03    0.15065E+01   -0.19993E+00 17172   0.480E+00    0.245E+01
DAV:  23    -0.623750478043E+03    0.10147E+01   -0.45160E+00 18192   0.614E+00    0.235E+01
DAV:  24    -0.623471009368E+03    0.27947E+00   -0.23074E+00 14760   0.282E+00    0.208E+01
DAV:  25    -0.623107235850E+03    0.36377E+00   -0.65263E-01 16104   0.177E+00    0.198E+01
DAV:  26    -0.623123129013E+03   -0.15893E-01   -0.24581E-01 15444   0.122E+00    0.192E+01
DAV:  27    -0.623351598380E+03   -0.22847E+00   -0.63633E-01 15492   0.845E-01    0.203E+01
DAV:  28    -0.622879124132E+03    0.47247E+00   -0.45055E-01 17328   0.934E-01    0.189E+01
DAV:  29    -0.622810226655E+03    0.68897E-01   -0.17647E+00 17220   0.157E+00    0.203E+01
DAV:  30    -0.622700863958E+03    0.10936E+00   -0.18684E-01 15636   0.682E-01    0.196E+01
DAV:  31    -0.622836363639E+03   -0.13550E+00   -0.19933E+00 16380   0.107E+00    0.193E+01
DAV:  32    -0.622890423415E+03   -0.54060E-01   -0.75584E-02 12096   0.392E-01    0.195E+01
DAV:  33    -0.622829373799E+03    0.61050E-01   -0.33302E-01 17400   0.101E+00    0.194E+01
DAV:  34    -0.623252298338E+03   -0.42292E+00   -0.19826E+00 15960   0.122E+00    0.235E+01
DAV:  35    -0.623174385751E+03    0.77913E-01   -0.71924E-02 13668   0.654E-01    0.233E+01
DAV:  36    -0.623167749348E+03    0.66364E-02   -0.10704E-02 15336   0.189E-01    0.233E+01
DAV:  37    -0.623156258889E+03    0.11490E-01   -0.10324E-02 16536   0.158E-01    0.234E+01
DAV:  38    -0.622919354768E+03    0.23690E+00   -0.39767E-01 15936   0.786E-01    0.230E+01
DAV:  39    -0.622625604250E+03    0.29375E+00   -0.42937E-01 16032   0.119E+00    0.199E+01
DAV:  40    -0.622039841985E+03    0.58576E+00   -0.25890E+00 16020   0.214E+00    0.180E+01
DAV:  41    -0.621487002375E+03    0.55284E+00   -0.83325E-01 15540   0.170E+00    0.144E+01
DAV:  42    -0.620987542349E+03    0.49946E+00   -0.31310E+00 15660   0.241E+00    0.118E+01
DAV:  43    -0.620982446936E+03    0.50954E-02   -0.42719E-01 14436   0.144E+00    0.108E+01
DAV:  44    -0.620847073113E+03    0.13537E+00   -0.14323E-01 14748   0.896E-01    0.105E+01
DAV:  45    -0.620359144889E+03    0.48793E+00   -0.27681E-01 15684   0.155E+00    0.101E+01
DAV:  46    -0.620067591654E+03    0.29155E+00   -0.40790E-01 14904   0.113E+00    0.116E+01
DAV:  47    -0.620328496987E+03   -0.26091E+00   -0.20988E-01 14640   0.117E+00    0.104E+01
DAV:  48    -0.620272801729E+03    0.55695E-01   -0.24797E-01 15072   0.102E+00    0.100E+01
DAV:  49    -0.620335973045E+03   -0.63171E-01   -0.91404E-01 14616   0.114E+00    0.976E+00
DAV:  50    -0.620348659234E+03   -0.12686E-01   -0.73172E-02 12048   0.542E-01    0.978E+00
DAV:  51    -0.620332163565E+03    0.16496E-01   -0.55420E-03 16896   0.127E-01    0.975E+00
DAV:  52    -0.620363334970E+03   -0.31171E-01   -0.37836E-03 15072   0.143E-01    0.981E+00
DAV:  53    -0.620337515111E+03    0.25820E-01   -0.31565E-02 16608   0.264E-01    0.984E+00
DAV:  54    -0.620335871927E+03    0.16432E-02   -0.10433E-02 16080   0.186E-01    0.984E+00
DAV:  55    -0.620352453335E+03   -0.16581E-01   -0.26477E-03 12012   0.753E-02    0.994E+00
DAV:  56    -0.620292570365E+03    0.59883E-01   -0.61777E-03 15420   0.252E-01    0.986E+00
DAV:  57    -0.620400161848E+03   -0.10759E+00   -0.17233E-02 15672   0.336E-01    0.101E+01
DAV:  58    -0.617334105414E+03    0.30661E+01   -0.62675E+00 16680   0.132E+01    0.146E+01
DAV:  59    -0.614387662405E+03    0.29464E+01   -0.65247E+00 14772   0.469E+00    0.970E+00
DAV:  60    -0.612943604514E+03    0.14441E+01   -0.85583E+00 14532   0.345E+00    0.164E+01
DAV:  61    -0.609130397323E+03    0.38132E+01   -0.13471E+00 13704   0.273E+00    0.176E+01
DAV:  62    -0.608643913360E+03    0.48648E+00   -0.34646E-01 13560   0.113E+00    0.178E+01
DAV:  63    -0.610012569074E+03   -0.13687E+01   -0.33648E+00 15108   0.255E+00    0.251E+01
DAV:  64    -0.610712363290E+03   -0.69979E+00   -0.53358E-01 14004   0.172E+00    0.244E+01
DAV:  65    -0.610726825658E+03   -0.14462E-01   -0.13911E-01 14340   0.801E-01    0.246E+01
DAV:  66    -0.609895146465E+03    0.83168E+00   -0.57413E-01 14364   0.123E+00    0.247E+01
DAV:  67    -0.611886126763E+03   -0.19910E+01   -0.40929E-01 14316   0.130E+00    0.257E+01
DAV:  68    -0.613259440803E+03   -0.13733E+01   -0.27333E+00 15348   0.404E+00    0.209E+01
DAV:  69    -0.613954898880E+03   -0.69546E+00   -0.26201E+00 14040   0.266E+00    0.192E+01
DAV:  70    -0.614666782212E+03   -0.71188E+00   -0.26334E+00 14232   0.230E+00    0.161E+01
DAV:  71    -0.615026130636E+03   -0.35935E+00   -0.19605E+00 15144   0.194E+00    0.229E+01
DAV:  72    -0.613874703674E+03    0.11514E+01   -0.66614E-01 14172   0.134E+00    0.214E+01
DAV:  73    -0.614743115851E+03   -0.86841E+00   -0.59994E+00 16728   0.310E+00    0.973E+00
DAV:  74    -0.614019165025E+03    0.72395E+00   -0.18822E+00 14676   0.275E+00    0.100E+01
DAV:  75    -0.615015196791E+03   -0.99603E+00   -0.36534E-01 13632   0.126E+00    0.922E+00
DAV:  76    -0.614617373495E+03    0.39782E+00   -0.17698E-01 13680   0.923E-01    0.951E+00
DAV:  77    -0.614703595082E+03   -0.86222E-01   -0.49118E-01 14556   0.125E+00    0.127E+01
DAV:  78    -0.616474812291E+03   -0.17712E+01   -0.18888E+00 15108   0.225E+00    0.105E+01
DAV:  79    -0.616162897664E+03    0.31191E+00   -0.61219E-01 13320   0.112E+00    0.797E+00
DAV:  80    -0.616015010509E+03    0.14789E+00   -0.11311E-01 13692   0.588E-01    0.779E+00
DAV:  81    -0.617217914629E+03   -0.12029E+01   -0.35254E-01 15444   0.121E+00    0.779E+00
DAV:  82    -0.617648447082E+03   -0.43053E+00   -0.12501E-01 13272   0.655E-01    0.807E+00
DAV:  83    -0.620411901678E+03   -0.27635E+01   -0.15379E+00 15420   0.310E+00    0.828E+00
DAV:  84    -0.620639945837E+03   -0.22804E+00   -0.66009E-01 13164   0.155E+00    0.842E+00
DAV:  85    -0.620537910191E+03    0.10204E+00   -0.11237E-01 14316   0.840E-01    0.854E+00
DAV:  86    -0.620552143923E+03   -0.14234E-01   -0.38621E-02 12396   0.394E-01    0.850E+00
DAV:  87    -0.620548928447E+03    0.32155E-02   -0.22829E-03 14868   0.778E-02    0.850E+00
DAV:  88    -0.620205595712E+03    0.34333E+00   -0.37460E-01 16668   0.238E+00    0.771E+00
DAV:  89    -0.620742552069E+03   -0.53696E+00   -0.20474E+00 16068   0.194E+00    0.186E+01
DAV:  90    -0.620951161459E+03   -0.20861E+00   -0.16915E-01 14052   0.958E-01    0.197E+01
DAV:  91    -0.621015642776E+03   -0.64481E-01   -0.24489E-02 13188   0.391E-01    0.200E+01
DAV:  92    -0.621007902099E+03    0.77407E-02   -0.26044E-03 14268   0.105E-01    0.200E+01
DAV:  93    -0.621269099783E+03   -0.26120E+00   -0.24213E-01 15216   0.906E-01    0.220E+01
DAV:  94    -0.621367306739E+03   -0.98207E-01   -0.85182E-02 15264   0.106E+00    0.215E+01
DAV:  95    -0.621445837568E+03   -0.78531E-01   -0.78037E-02 14508   0.809E-01    0.209E+01
DAV:  96    -0.621348506029E+03    0.97332E-01   -0.61515E-02 15264   0.942E-01    0.203E+01
DAV:  97    -0.621075841876E+03    0.27266E+00   -0.13990E-01 14844   0.139E+00    0.194E+01
DAV:  98    -0.620970896156E+03    0.10495E+00   -0.23079E-01 14904   0.164E+00    0.206E+01
DAV:  99    -0.620840624317E+03    0.13027E+00   -0.82078E-02 13560   0.586E-01    0.200E+01
DAV: 100    -0.620842173300E+03   -0.15490E-02   -0.88193E-03 13728   0.192E-01
   1 F= -.62084217E+03 E0= -.62082479E+03  d E =-.620842E+03  mag=    18.8901
       N       E                     dE             d eps       ncg     rms          rms(c)
DAV:   1    -0.626025027486E+03   -0.51844E+01   -0.98239E+02 11172   0.633E+01    0.303E+01
DAV:   2    -0.623050537072E+03    0.29745E+01   -0.61673E+01 15696   0.238E+01    0.310E+01
DAV:   3    -0.623099806067E+03   -0.49269E-01   -0.25776E+01 16224   0.189E+01    0.157E+01
DAV:   4    -0.622726686541E+03    0.37312E+00   -0.62738E+00 15888   0.622E+00    0.909E+00
DAV:   5    -0.622374606070E+03    0.35208E+00   -0.19907E+00 16044   0.424E+00    0.524E+00
DAV:   6    -0.622363087813E+03    0.11518E-01   -0.11184E+00 15732   0.262E+00    0.276E+00
DAV:   7    -0.622342369830E+03    0.20718E-01   -0.26681E-01 15792   0.178E+00    0.151E+00
DAV:   8    -0.622360893355E+03   -0.18524E-01   -0.17771E-01 15264   0.103E+00    0.118E+00
DAV:   9    -0.622370068341E+03   -0.91750E-02   -0.41897E-02 14412   0.474E-01    0.873E-01
DAV:  10    -0.622377966253E+03   -0.78979E-02   -0.17561E-02 15612   0.305E-01    0.629E-01
DAV:  11    -0.622381789387E+03   -0.38231E-02   -0.64664E-03 17016   0.320E-01    0.478E-01
DAV:  12    -0.622388260988E+03   -0.64716E-02   -0.84699E-03 15264   0.199E-01    0.342E-01
DAV:  13    -0.622390435024E+03   -0.21740E-02   -0.19989E-03 15936   0.128E-01    0.302E-01
DAV:  14    -0.622392709849E+03   -0.22748E-02   -0.29034E-03 15492   0.135E-01    0.224E-01
DAV:  15    -0.622393848637E+03   -0.11388E-02   -0.12917E-03 15480   0.937E-02    0.184E-01
DAV:  16    -0.622394262636E+03   -0.41400E-03   -0.90127E-04 13848   0.628E-02    0.152E-01
DAV:  17    -0.622394423311E+03   -0.16068E-03   -0.25467E-04  8112   0.428E-02    0.137E-01
DAV:  18    -0.622394710329E+03   -0.28702E-03   -0.62992E-04 11316   0.494E-02    0.127E-01
DAV:  19    -0.622394892471E+03   -0.18214E-03   -0.11290E-04  6456   0.306E-02    0.113E-01
DAV:  20    -0.622395380011E+03   -0.48754E-03   -0.10807E-03 12792   0.633E-02    0.113E-01
DAV:  21    -0.622395641392E+03   -0.26138E-03   -0.32417E-04  9612   0.477E-02    0.902E-02
DAV:  22    -0.622395786214E+03   -0.14482E-03   -0.64936E-04 11196   0.484E-02    0.619E-02
DAV:  23    -0.622395796592E+03   -0.10377E-04   -0.17340E-04  6348   0.373E-02
   2 F= -.62239580E+03 E0= -.62239535E+03  d E =-.155362E+01  mag=    19.9879
       N       E                     dE             d eps       ncg     rms          rms(c)
DAV:   1    -0.630248984056E+03   -0.78532E+01   -0.27286E+02 11112   0.347E+01    0.198E+01
DAV:   2    -0.626991433306E+03    0.32576E+01   -0.36713E+01 15948   0.210E+01    0.184E+01
DAV:   3    -0.626085914230E+03    0.90552E+00   -0.76236E+00 15708   0.778E+00    0.685E+00
DAV:   4    -0.625636560210E+03    0.44935E+00   -0.97914E-01 16380   0.412E+00    0.404E+00
DAV:   5    -0.625654105007E+03   -0.17545E-01   -0.14714E+00 15912   0.258E+00    0.241E+00
DAV:   6    -0.625613476781E+03    0.40628E-01   -0.26093E-01 15984   0.144E+00    0.130E+00
DAV:   7    -0.625615210032E+03   -0.17333E-02   -0.10148E-01 16488   0.100E+00    0.742E-01
DAV:   8    -0.625614879207E+03    0.33082E-03   -0.21126E-02 15996   0.391E-01    0.529E-01
DAV:   9    -0.625615125854E+03   -0.24665E-03   -0.47275E-03 14748   0.230E-01    0.215E-01
DAV:  10    -0.625615181127E+03   -0.55273E-04   -0.14739E-03 16032   0.109E-01    0.138E-01
DAV:  11    -0.625615114057E+03    0.67070E-04   -0.27989E-04  9192   0.858E-02
   3 F= -.62561511E+03 E0= -.62561511E+03  d E =-.321932E+01  mag=    19.9781
       N       E                     dE             d eps       ncg     rms          rms(c)
DAV:   1    -0.626239005112E+03   -0.62382E+00   -0.82034E+01 10752   0.181E+01    0.465E+00
DAV:   2    -0.626261256105E+03   -0.22251E-01   -0.40749E+00 15516   0.680E+00    0.562E+00
DAV:   3    -0.626217164437E+03    0.44092E-01   -0.77799E-01 14832   0.202E+00    0.330E+00
DAV:   4    -0.626172519517E+03    0.44645E-01   -0.19574E-01 15936   0.110E+00    0.263E+00
DAV:   5    -0.626159681696E+03    0.12838E-01   -0.87312E-02 14064   0.858E-01    0.127E+00
DAV:   6    -0.626150633546E+03    0.90481E-02   -0.62260E-02 15924   0.662E-01    0.534E-01
DAV:   7    -0.626151009108E+03   -0.37556E-03   -0.38805E-02 14760   0.468E-01    0.491E-01
DAV:   8    -0.626151001039E+03    0.80689E-05   -0.34455E-03 14868   0.225E-01    0.174E-01
DAV:   9    -0.626151075610E+03   -0.74572E-04   -0.22502E-03 15624   0.105E-01    0.143E-01
DAV:  10    -0.626150993392E+03    0.82218E-04   -0.50330E-04 11988   0.741E-02
   4 F= -.62615099E+03 E0= -.62615099E+03  d E =-.535879E+00  mag=    19.9850
       N       E                     dE             d eps       ncg     rms          rms(c)
DAV:   1    -0.626143620052E+03    0.74556E-02   -0.23711E+01 10776   0.969E+00    0.225E+00
DAV:   2    -0.626170862717E+03   -0.27243E-01   -0.94166E-01 15552   0.318E+00    0.257E+00
DAV:   3    -0.626170308540E+03    0.55418E-03   -0.19797E-01 14940   0.975E-01    0.152E+00
DAV:   4    -0.626160831760E+03    0.94768E-02   -0.38660E-02 15924   0.491E-01    0.120E+00
DAV:   5    -0.626156802040E+03    0.40297E-02   -0.22214E-02 13536   0.439E-01    0.554E-01
DAV:   6    -0.626155098684E+03    0.17034E-02   -0.17283E-02 15864   0.327E-01    0.250E-01
DAV:   7    -0.626155089087E+03    0.95964E-05   -0.94400E-03 14844   0.226E-01    0.215E-01
DAV:   8    -0.626155101884E+03   -0.12796E-04   -0.85794E-04 12900   0.105E-01
   5 F= -.62615510E+03 E0= -.62615510E+03  d E =-.410849E-02  mag=    19.9889
       N       E                     dE             d eps       ncg     rms          rms(c)
DAV:   1    -0.626241008785E+03   -0.85920E-01   -0.17333E+00 11460   0.290E+00    0.167E+00
DAV:   2    -0.626209166637E+03    0.31842E-01   -0.28174E-01 15720   0.150E+00    0.163E+00
DAV:   3    -0.626199438456E+03    0.97282E-02   -0.57543E-02 15144   0.607E-01    0.665E-01
DAV:   4    -0.626198442876E+03    0.99558E-03   -0.52044E-03 15384   0.201E-01    0.462E-01
DAV:   5    -0.626198201355E+03    0.24152E-03   -0.17631E-03 15480   0.160E-01    0.272E-01
DAV:   6    -0.626197989495E+03    0.21186E-03   -0.12573E-03 15660   0.860E-02    0.113E-01
DAV:   7    -0.626197960609E+03    0.28886E-04   -0.17787E-04  7776   0.643E-02
   6 F= -.62619796E+03 E0= -.62619796E+03  d E =-.428587E-01  mag=    19.9915
       N       E                     dE             d eps       ncg     rms          rms(c)
DAV:   1    -0.626099498927E+03    0.98491E-01   -0.13834E+02 10752   0.231E+01    0.692E+00
DAV:   2    -0.626314852472E+03   -0.21535E+00   -0.79697E+00 14700   0.749E+00    0.768E+00
DAV:   3    -0.626211866791E+03    0.10299E+00   -0.12833E+00 15240   0.247E+00    0.486E+00
DAV:   4    -0.626177481269E+03    0.34386E-01   -0.81649E-01 16080   0.223E+00    0.385E+00
DAV:   5    -0.626139800272E+03    0.37681E-01   -0.52242E-01 15012   0.159E+00    0.187E+00
DAV:   6    -0.626116403713E+03    0.23397E-01   -0.20482E-01 15984   0.106E+00    0.102E+00
DAV:   7    -0.626111518306E+03    0.48854E-02   -0.85172E-02 15732   0.656E-01    0.302E-01
DAV:   8    -0.626111489577E+03    0.28730E-04   -0.81061E-03 14100   0.274E-01    0.189E-01
DAV:   9    -0.626111731465E+03   -0.24189E-03   -0.41848E-03 15504   0.139E-01    0.144E-01
DAV:  10    -0.626111647162E+03    0.84303E-04   -0.54752E-04 12012   0.651E-02
   7 F= -.62611165E+03 E0= -.62611165E+03  d E =0.863134E-01  mag=    19.9942
       N       E                     dE             d eps       ncg     rms          rms(c)
DAV:   1    -0.626614401785E+03   -0.50267E+00   -0.40946E+01 10752   0.119E+01    0.344E+00
DAV:   2    -0.626651296083E+03   -0.36894E-01   -0.25816E+00 14700   0.399E+00    0.468E+00
DAV:   3    -0.626633902291E+03    0.17394E-01   -0.32881E-01 13704   0.116E+00    0.383E+00
DAV:   4    -0.626601310008E+03    0.32592E-01   -0.34078E-01 15876   0.129E+00    0.321E+00
DAV:   5    -0.626608043700E+03   -0.67337E-02   -0.30179E-01 13788   0.117E+00    0.220E+00
DAV:   6    -0.626574896514E+03    0.33147E-01   -0.10675E-01 15852   0.827E-01    0.141E+00
DAV:   7    -0.626562419845E+03    0.12477E-01   -0.90355E-02 15156   0.580E-01    0.589E-01
DAV:   8    -0.626561258086E+03    0.11618E-02   -0.10068E-02 15756   0.238E-01    0.330E-01
DAV:   9    -0.626560698939E+03    0.55915E-03   -0.24897E-03 14664   0.102E-01    0.210E-01
DAV:  10    -0.626560362282E+03    0.33666E-03   -0.89016E-04 14112   0.656E-02    0.136E-01
DAV:  11    -0.626560311545E+03    0.50737E-04   -0.36284E-04  9036   0.358E-02
   8 F= -.62656031E+03 E0= -.62656031E+03  d E =-.448664E+00  mag=    19.9962
       N       E                     dE             d eps       ncg     rms          rms(c)
DAV:   1    -0.626327795600E+03    0.23257E+00   -0.85831E+01 10752   0.187E+01    0.428E+00
DAV:   2    -0.626339192744E+03   -0.11397E-01   -0.31258E+00 15312   0.518E+00    0.433E+00
DAV:   3    -0.626308613685E+03    0.30579E-01   -0.45171E-01 15144   0.170E+00    0.188E+00
DAV:   4    -0.626287467801E+03    0.21146E-01   -0.60878E-02 15888   0.735E-01    0.145E+00
DAV:   5    -0.626283269654E+03    0.41981E-02   -0.36650E-02 15108   0.457E-01    0.676E-01
DAV:   6    -0.626280862601E+03    0.24071E-02   -0.17684E-02 16164   0.350E-01    0.191E-01
DAV:   7    -0.626281006676E+03   -0.14407E-03   -0.34798E-03 15372   0.152E-01    0.152E-01
DAV:   8    -0.626281000946E+03    0.57294E-05   -0.37771E-04 10200   0.566E-02
   9 F= -.62628100E+03 E0= -.62628100E+03  d E =0.279311E+00  mag=    19.9972
       N       E                     dE             d eps       ncg     rms          rms(c)
DAV:   1    -0.626655541045E+03   -0.37453E+00   -0.78360E+01 10824   0.177E+01    0.669E+00
DAV:   2    -0.626355223924E+03    0.30032E+00   -0.39218E+00 15708   0.680E+00    0.524E+00
DAV:   3    -0.626331749800E+03    0.23474E-01   -0.11286E+00 15840   0.275E+00    0.318E+00
DAV:   4    -0.626302157673E+03    0.29592E-01   -0.15306E-01 16272   0.976E-01    0.158E+00
DAV:   5    -0.626291616298E+03    0.10541E-01   -0.75065E-02 15084   0.620E-01    0.104E+00
DAV:   6    -0.626290747160E+03    0.86914E-03   -0.25649E-02 15900   0.430E-01    0.574E-01
DAV:   7    -0.626290205609E+03    0.54155E-03   -0.96906E-03 15960   0.308E-01    0.202E-01
DAV:   8    -0.626290200676E+03    0.49329E-05   -0.30897E-03 15792   0.140E-01    0.123E-01
DAV:   9    -0.626290165366E+03    0.35310E-04   -0.96397E-04 13620   0.844E-02
  10 F= -.62629017E+03 E0= -.62629017E+03  d E =-.916442E-02  mag=    19.9981
       N       E                     dE             d eps       ncg     rms          rms(c)
DAV:   1    -0.626339472721E+03   -0.49272E-01   -0.25752E+01 10776   0.972E+00    0.338E+00
DAV:   2    -0.626376401191E+03   -0.36928E-01   -0.88131E-01 14004   0.294E+00    0.225E+00
DAV:   3    -0.626389086461E+03   -0.12685E-01   -0.27226E-01 15660   0.136E+00    0.209E+00
DAV:   4    -0.626383825366E+03    0.52611E-02   -0.52356E-02 14580   0.474E-01    0.127E+00
DAV:   5    -0.626376993664E+03    0.68317E-02   -0.25684E-02 14868   0.400E-01    0.633E-01
DAV:   6    -0.626376928008E+03    0.65656E-04   -0.16874E-02 15744   0.383E-01    0.442E-01
DAV:   7    -0.626376776351E+03    0.15166E-03   -0.67492E-03 14280   0.190E-01    0.185E-01
DAV:   8    -0.626376589501E+03    0.18685E-03   -0.57670E-04 12780   0.106E-01    0.133E-01
DAV:   9    -0.626376620188E+03   -0.30686E-04   -0.94961E-04 12420   0.674E-02
  11 F= -.62637662E+03 E0= -.62637662E+03  d E =-.864548E-01  mag=    19.9987
       N       E                     dE             d eps       ncg     rms          rms(c)
DAV:   1    -0.626440951377E+03   -0.64362E-01   -0.35636E+01 10752   0.118E+01    0.163E+00
DAV:   2    -0.626517791944E+03   -0.76841E-01   -0.97012E-01 12324   0.211E+00    0.915E-01
DAV:   3    -0.626516518695E+03    0.12732E-02   -0.48679E-02 15888   0.532E-01    0.638E-01
DAV:   4    -0.626514091142E+03    0.24276E-02   -0.76552E-03 16056   0.225E-01    0.351E-01
DAV:   5    -0.626512366729E+03    0.17244E-02   -0.36902E-03 14496   0.167E-01    0.162E-01
DAV:   6    -0.626512260615E+03    0.10611E-03   -0.25853E-03 14592   0.137E-01    0.106E-01
DAV:   7    -0.626512295673E+03   -0.35059E-04   -0.75652E-04 11808   0.627E-02
  12 F= -.62651230E+03 E0= -.62651230E+03  d E =-.135675E+00  mag=    19.9990
       N       E                     dE             d eps       ncg     rms          rms(c)
DAV:   1    -0.624137910244E+03    0.23744E+01   -0.73745E+02 10752   0.535E+01    0.113E+01
DAV:   2    -0.626150779993E+03   -0.20129E+01   -0.29319E+01 14760   0.129E+01    0.123E+01
DAV:   3    -0.625674563058E+03    0.47622E+00   -0.42648E+00 15276   0.464E+00    0.662E+00
DAV:   4    -0.625585572852E+03    0.88990E-01   -0.17836E+00 15708   0.385E+00    0.584E+00
DAV:   5    -0.625440886625E+03    0.14469E+00   -0.88583E-01 15408   0.209E+00    0.189E+00
DAV:   6    -0.625415143190E+03    0.25743E-01   -0.23054E-01 16320   0.124E+00    0.802E-01
DAV:   7    -0.625415214511E+03   -0.71321E-04   -0.53620E-02 15312   0.589E-01    0.518E-01
DAV:   8    -0.625415337945E+03   -0.12343E-03   -0.19496E-02 14952   0.348E-01    0.367E-01
DAV:   9    -0.625414971834E+03    0.36611E-03   -0.47723E-03 15648   0.173E-01    0.171E-01
DAV:  10    -0.625414911906E+03    0.59928E-04   -0.15718E-03 15792   0.115E-01    0.115E-01
DAV:  11    -0.625414981664E+03   -0.69758E-04   -0.61856E-04 11916   0.575E-02
  13 F= -.62541498E+03 E0= -.62541498E+03  d E =0.109731E+01  mag=    19.9993
       N       E                     dE             d eps       ncg     rms          rms(c)
DAV:   1    -0.627010132054E+03   -0.15952E+01   -0.10830E+02 10752   0.187E+01    0.514E+00
DAV:   2    -0.627274771645E+03   -0.26464E+00   -0.69444E+00 15216   0.684E+00    0.712E+00
DAV:   3    -0.627166406860E+03    0.10836E+00   -0.91550E-01 13488   0.201E+00    0.569E+00
DAV:   4    -0.627013427459E+03    0.15298E+00   -0.81431E-01 15432   0.193E+00    0.414E+00
DAV:   5    -0.627009960270E+03    0.34672E-02   -0.66498E-01 14652   0.195E+00    0.257E+00
DAV:   6    -0.626989314747E+03    0.20646E-01   -0.22200E-01 15276   0.109E+00    0.209E+00
DAV:   7    -0.626952024009E+03    0.37291E-01   -0.17131E-01 13296   0.827E-01    0.924E-01
DAV:   8    -0.626948910534E+03    0.31135E-02   -0.53177E-02 16092   0.595E-01    0.439E-01
DAV:   9    -0.626948469801E+03    0.44073E-03   -0.77522E-03 15084   0.200E-01    0.228E-01
DAV:  10    -0.626948431531E+03    0.38270E-04   -0.14370E-03 15612   0.889E-02    0.158E-01
DAV:  11    -0.626948351134E+03    0.80398E-04   -0.37969E-04 10512   0.493E-02
  14 F= -.62694835E+03 E0= -.62694835E+03  d E =-.153337E+01  mag=    19.9995
       N       E                     dE             d eps       ncg     rms          rms(c)
DAV:   1    -0.626930350089E+03    0.18081E-01   -0.16829E+01 10752   0.783E+00    0.175E+00
DAV:   2    -0.626971723572E+03   -0.41373E-01   -0.87153E-01 14880   0.254E+00    0.262E+00
DAV:   3    -0.626970177753E+03    0.15458E-02   -0.11230E-01 12996   0.705E-01    0.219E+00
DAV:   4    -0.626960891182E+03    0.92866E-02   -0.15810E-02 15324   0.271E-01    0.196E+00
DAV:   5    -0.626954831367E+03    0.60598E-02   -0.77673E-02 15636   0.608E-01    0.129E+00
DAV:   6    -0.626953494899E+03    0.13365E-02   -0.66109E-02 15420   0.640E-01    0.939E-01
DAV:   7    -0.626949117308E+03    0.43776E-02   -0.34972E-02 14436   0.388E-01    0.580E-01
DAV:   8    -0.626949396111E+03   -0.27880E-03   -0.45201E-03 14184   0.174E-01    0.394E-01
DAV:   9    -0.626949204552E+03    0.19156E-03   -0.16851E-03 15684   0.132E-01    0.258E-01
DAV:  10    -0.626948779449E+03    0.42510E-03   -0.12862E-03 14208   0.774E-02    0.173E-01
DAV:  11    -0.626948733184E+03    0.46265E-04   -0.23328E-04  7248   0.371E-02
  15 F= -.62694873E+03 E0= -.62694873E+03  d E =-.382050E-03  mag=    19.9997
       N       E                     dE             d eps       ncg     rms          rms(c)
DAV:   1    -0.626989684302E+03   -0.40905E-01   -0.19837E+00 10896   0.260E+00    0.859E-01
DAV:   2    -0.626996890720E+03   -0.72064E-02   -0.12269E-01 14268   0.912E-01    0.116E+00
DAV:   3    -0.626995294271E+03    0.15964E-02   -0.14238E-02 13440   0.270E-01    0.871E-01
DAV:   4    -0.626993657812E+03    0.16365E-02   -0.87322E-03 14712   0.186E-01    0.668E-01
DAV:   5    -0.626993693116E+03   -0.35304E-04   -0.56393E-03 15876   0.220E-01    0.323E-01
DAV:   6    -0.626993438250E+03    0.25487E-03   -0.45410E-03 15672   0.149E-01    0.213E-01
DAV:   7    -0.626993176462E+03    0.26179E-03   -0.17924E-03 13236   0.868E-02    0.101E-01
DAV:   8    -0.626993185145E+03   -0.86828E-05   -0.29168E-04  9180   0.518E-02
  16 F= -.62699319E+03 E0= -.62699319E+03  d E =-.444520E-01  mag=    19.9998
       N       E                     dE             d eps       ncg     rms          rms(c)
DAV:   1    -0.626997487098E+03   -0.43106E-02   -0.54958E+00 10776   0.457E+00    0.941E-01
DAV:   2    -0.627015346904E+03   -0.17860E-01   -0.15529E-01 13536   0.854E-01    0.600E-01
DAV:   3    -0.627016232472E+03   -0.88557E-03   -0.80219E-03 15360   0.249E-01    0.374E-01
DAV:   4    -0.627015796473E+03    0.43600E-03   -0.14377E-03 15396   0.818E-02    0.210E-01
DAV:   5    -0.627015381618E+03    0.41485E-03   -0.97420E-04 13416   0.834E-02    0.718E-02
DAV:   6    -0.627015402472E+03   -0.20853E-04   -0.49743E-04 11856   0.601E-02
  17 F= -.62701540E+03 E0= -.62701540E+03  d E =-.222173E-01  mag=    19.9998
       N       E                     dE             d eps       ncg     rms          rms(c)
DAV:   1    -0.627020217579E+03   -0.48360E-02   -0.57138E-01 10824   0.148E+00    0.200E-01
DAV:   2    -0.627021455460E+03   -0.12379E-02   -0.18121E-02 14136   0.324E-01    0.191E-01
DAV:   3    -0.627021442189E+03    0.13270E-04   -0.14854E-03 15204   0.939E-02    0.146E-01
DAV:   4    -0.627021372919E+03    0.69270E-04   -0.16171E-04  8244   0.357E-02
  18 F= -.62702137E+03 E0= -.62702137E+03  d E =-.597045E-02  mag=    19.9998
       N       E                     dE             d eps       ncg     rms          rms(c)
DAV:   1    -0.627013706670E+03    0.77355E-02   -0.64340E+00 10752   0.492E+00    0.113E+00
DAV:   2    -0.627032245638E+03   -0.18539E-01   -0.29211E-01 14364   0.134E+00    0.149E+00
DAV:   3    -0.627028330774E+03    0.39149E-02   -0.28259E-02 13644   0.379E-01    0.104E+00
DAV:   4    -0.627025907331E+03    0.24234E-02   -0.28993E-02 15672   0.363E-01    0.783E-01
DAV:   5    -0.627025346986E+03    0.56035E-03   -0.62610E-03 14064   0.221E-01    0.377E-01
DAV:   6    -0.627024708292E+03    0.63869E-03   -0.50413E-03 15804   0.156E-01    0.213E-01
DAV:   7    -0.627024529643E+03    0.17865E-03   -0.19903E-03 14040   0.948E-02    0.109E-01
DAV:   8    -0.627024507900E+03    0.21743E-04   -0.23953E-04  8508   0.607E-02
  19 F= -.62702451E+03 E0= -.62702451E+03  d E =-.313498E-02  mag=    19.9999
       N       E                     dE             d eps       ncg     rms          rms(c)
DAV:   1    -0.627044222907E+03   -0.19693E-01   -0.18258E+00 10752   0.253E+00    0.802E-01
DAV:   2    -0.627048141738E+03   -0.39188E-02   -0.14087E-01 14400   0.103E+00    0.121E+00
DAV:   3    -0.627046305812E+03    0.18359E-02   -0.17805E-02 13344   0.283E-01    0.973E-01
DAV:   4    -0.627043572536E+03    0.27333E-02   -0.16995E-02 15120   0.276E-01    0.757E-01
DAV:   5    -0.627043905336E+03   -0.33280E-03   -0.99005E-03 14436   0.241E-01    0.444E-01
DAV:   6    -0.627043276646E+03    0.62869E-03   -0.43512E-03 15660   0.157E-01    0.336E-01
DAV:   7    -0.627042511258E+03    0.76539E-03   -0.32591E-03 13548   0.118E-01    0.199E-01
DAV:   8    -0.627042402150E+03    0.10911E-03   -0.84816E-04 13632   0.778E-02    0.899E-02
DAV:   9    -0.627042345067E+03    0.57083E-04   -0.19399E-04  7680   0.286E-02
  20 F= -.62704235E+03 E0= -.62704235E+03  d E =-.178372E-01  mag=    19.9999
       N       E                     dE             d eps       ncg     rms          rms(c)
DAV:   1    -0.627046928619E+03   -0.45265E-02   -0.23952E+00 10752   0.301E+00    0.371E-01
DAV:   2    -0.627053243166E+03   -0.63145E-02   -0.63851E-02 12816   0.533E-01    0.220E-01
DAV:   3    -0.627053327921E+03   -0.84755E-04   -0.25915E-03 15312   0.980E-02    0.124E-01
DAV:   4    -0.627053148014E+03    0.17991E-03   -0.46288E-04 10896   0.561E-02    0.755E-02
DAV:   5    -0.627053099160E+03    0.48854E-04   -0.37400E-04  9348   0.496E-02
  21 F= -.62705310E+03 E0= -.62705310E+03  d E =-.107541E-01  mag=    19.9999
       N       E                     dE             d eps       ncg     rms          rms(c)
DAV:   1    -0.627032602479E+03    0.20546E-01   -0.13263E+01 10752   0.706E+00    0.114E+00
DAV:   2    -0.627072746502E+03   -0.40144E-01   -0.37929E-01 13080   0.137E+00    0.951E-01
DAV:   3    -0.627073477850E+03   -0.73135E-03   -0.27224E-02 15672   0.363E-01    0.477E-01
DAV:   4    -0.627072355392E+03    0.11225E-02   -0.78723E-03 15960   0.214E-01    0.374E-01
DAV:   5    -0.627072094950E+03    0.26044E-03   -0.37628E-03 13332   0.130E-01    0.152E-01
DAV:   6    -0.627071932067E+03    0.16288E-03   -0.13561E-03 15732   0.974E-02    0.779E-02
DAV:   7    -0.627071944156E+03   -0.12088E-04   -0.62415E-04 11460   0.503E-02
  22 F= -.62707194E+03 E0= -.62707194E+03  d E =-.188450E-01  mag=    19.9999
       N       E                     dE             d eps       ncg     rms          rms(c)
DAV:   1    -0.627068877871E+03    0.30542E-02   -0.13200E+00 10752   0.221E+00    0.563E-01
DAV:   2    -0.627073227872E+03   -0.43500E-02   -0.67520E-02 14592   0.672E-01    0.731E-01
DAV:   3    -0.627072507697E+03    0.72018E-03   -0.90391E-03 14796   0.206E-01    0.512E-01
DAV:   4    -0.627072025152E+03    0.48254E-03   -0.56055E-03 15648   0.157E-01    0.400E-01
DAV:   5    -0.627071970685E+03    0.54466E-04   -0.25810E-03 13284   0.108E-01    0.209E-01
DAV:   6    -0.627071653713E+03    0.31697E-03   -0.17314E-03 15372   0.100E-01    0.115E-01
DAV:   7    -0.627071603282E+03    0.50431E-04   -0.11696E-03 12288   0.634E-02    0.473E-02
DAV:   8    -0.627071605718E+03   -0.24363E-05   -0.84918E-05  6684   0.280E-02
  23 F= -.62707161E+03 E0= -.62707161E+03  d E =0.338438E-03  mag=    20.0000
       N       E                     dE             d eps       ncg     rms          rms(c)
DAV:   1    -0.627074576984E+03   -0.29737E-02   -0.28051E+00 10752   0.324E+00    0.429E-01
DAV:   2    -0.627082332224E+03   -0.77552E-02   -0.74894E-02 13188   0.590E-01    0.306E-01
DAV:   3    -0.627082523384E+03   -0.19116E-03   -0.41874E-03 15384   0.136E-01    0.148E-01
DAV:   4    -0.627082305399E+03    0.21799E-03   -0.78662E-04 13560   0.723E-02    0.111E-01
DAV:   5    -0.627082251428E+03    0.53970E-04   -0.60183E-04 12576   0.611E-02
  24 F= -.62708225E+03 E0= -.62708225E+03  d E =-.106457E-01  mag=    20.0000
       N       E                     dE             d eps       ncg     rms          rms(c)
DAV:   1    -0.627084785768E+03   -0.24804E-02   -0.18624E+00 10752   0.261E+00    0.446E-01
DAV:   2    -0.627090090932E+03   -0.53052E-02   -0.52577E-02 13620   0.512E-01    0.359E-01
DAV:   3    -0.627090164099E+03   -0.73167E-04   -0.40578E-03 14844   0.146E-01    0.170E-01
DAV:   4    -0.627089990119E+03    0.17398E-03   -0.89924E-04 14112   0.787E-02    0.136E-01
DAV:   5    -0.627089951083E+03    0.39036E-04   -0.43124E-04 11520   0.489E-02
  25 F= -.62708995E+03 E0= -.62708995E+03  d E =-.769965E-02  mag=    20.0000
       N       E                     dE             d eps       ncg     rms          rms(c)
DAV:   1    -0.627093319424E+03   -0.33293E-02   -0.68513E-01 10752   0.161E+00    0.284E-01
DAV:   2    -0.627095066639E+03   -0.17472E-02   -0.25491E-02 14280   0.404E-01    0.356E-01
DAV:   3    -0.627094845093E+03    0.22155E-03   -0.25194E-03 13680   0.117E-01    0.217E-01
DAV:   4    -0.627094713440E+03    0.13165E-03   -0.11655E-03 13488   0.901E-02    0.167E-01
DAV:   5    -0.627094683779E+03    0.29662E-04   -0.35246E-04 10584   0.592E-02
  26 F= -.62709468E+03 E0= -.62709468E+03  d E =-.473270E-02  mag=    20.0000
       N       E                     dE             d eps       ncg     rms          rms(c)
DAV:   1    -0.627097708778E+03   -0.29953E-02   -0.10411E+00 10752   0.196E+00    0.245E-01
DAV:   2    -0.627100464097E+03   -0.27553E-02   -0.29312E-02 13440   0.373E-01    0.198E-01
DAV:   3    -0.627100498922E+03   -0.34825E-04   -0.17729E-03 15072   0.873E-02    0.108E-01
DAV:   4    -0.627100411774E+03    0.87148E-04   -0.43610E-04 11280   0.539E-02
  27 F= -.62710041E+03 E0= -.62710041E+03  d E =-.572799E-02  mag=    20.0000
       N       E                     dE             d eps       ncg     rms          rms(c)
DAV:   1    -0.627103291155E+03   -0.27922E-02   -0.70983E-01 10752   0.162E+00    0.343E-01
DAV:   2    -0.627104651940E+03   -0.13608E-02   -0.26513E-02 14748   0.421E-01    0.397E-01
DAV:   3    -0.627104353780E+03    0.29816E-03   -0.31022E-03 14304   0.135E-01    0.226E-01
DAV:   4    -0.627104207783E+03    0.14600E-03   -0.10636E-03 14016   0.813E-02    0.186E-01
DAV:   5    -0.627104161813E+03    0.45970E-04   -0.24876E-04  9276   0.499E-02
  28 F= -.62710416E+03 E0= -.62710416E+03  d E =-.375004E-02  mag=    20.0000
       N       E                     dE             d eps       ncg     rms          rms(c)
DAV:   1    -0.627107490142E+03   -0.32824E-02   -0.83435E-01 10752   0.176E+00    0.360E-01
DAV:   2    -0.627109798822E+03   -0.23087E-02   -0.34313E-02 14028   0.472E-01    0.460E-01
DAV:   3    -0.627109421771E+03    0.37705E-03   -0.35167E-03 13548   0.140E-01    0.296E-01
DAV:   4    -0.627109204379E+03    0.21739E-03   -0.21348E-03 14112   0.110E-01    0.200E-01
DAV:   5    -0.627109129629E+03    0.74749E-04   -0.51709E-04 12420   0.801E-02
  29 F= -.62710913E+03 E0= -.62710913E+03  d E =-.496782E-02  mag=    20.0000
       N       E                     dE             d eps       ncg     rms          rms(c)
DAV:   1    -0.627112327530E+03   -0.31232E-02   -0.11672E+00 10752   0.208E+00    0.310E-01
DAV:   2    -0.627115147808E+03   -0.28203E-02   -0.35543E-02 13524   0.420E-01    0.294E-01
DAV:   3    -0.627115085785E+03    0.62023E-04   -0.24394E-03 15156   0.107E-01    0.169E-01
DAV:   4    -0.627114973685E+03    0.11210E-03   -0.11269E-03 14568   0.828E-02    0.132E-01
DAV:   5    -0.627114932979E+03    0.40706E-04   -0.39859E-04 10836   0.499E-02
  30 F= -.62711493E+03 E0= -.62711493E+03  d E =-.580335E-02  mag=    20.0000
       N       E                     dE             d eps       ncg     rms          rms(c)
DAV:   1    -0.627116793130E+03   -0.18194E-02   -0.14105E-01 10800   0.720E-01    0.138E-01
DAV:   2    -0.627117150710E+03   -0.35758E-03   -0.48182E-03 13884   0.156E-01    0.128E-01
DAV:   3    -0.627117119487E+03    0.31223E-04   -0.29838E-04  9456   0.485E-02
  31 F= -.62711712E+03 E0= -.62711712E+03  d E =-.218651E-02  mag=    20.0000
       N       E                     dE             d eps       ncg     rms          rms(c)
DAV:   1    -0.627105549413E+03    0.11601E-01   -0.16309E+00 10752   0.245E+00    0.386E-01
DAV:   2    -0.627109636076E+03   -0.40867E-02   -0.45378E-02 12936   0.458E-01    0.220E-01
DAV:   3    -0.627109796237E+03   -0.16016E-03   -0.27776E-03 15540   0.118E-01    0.128E-01
DAV:   4    -0.627109675817E+03    0.12042E-03   -0.56355E-04 12756   0.611E-02    0.864E-02
DAV:   5    -0.627109623294E+03    0.52523E-04   -0.15200E-04  7380   0.426E-02
  32 F= -.62710962E+03 E0= -.62710962E+03  d E =0.749619E-02  mag=    20.0000
       N       E                     dE             d eps       ncg     rms          rms(c)
DAV:   1    -0.627112919181E+03   -0.32434E-02   -0.32818E+00 10752   0.349E+00    0.613E-01
DAV:   2    -0.627119519684E+03   -0.66005E-02   -0.94778E-02 12780   0.665E-01    0.332E-01
DAV:   3    -0.627119580408E+03   -0.60724E-04   -0.61080E-03 15708   0.192E-01    0.191E-01
DAV:   4    -0.627119294166E+03    0.28624E-03   -0.18312E-03 15492   0.103E-01    0.119E-01
DAV:   5    -0.627119187324E+03    0.10684E-03   -0.29930E-04  9612   0.582E-02    0.696E-02
DAV:   6    -0.627119180679E+03    0.66455E-05   -0.25407E-04  8592   0.374E-02
  33 F= -.62711918E+03 E0= -.62711918E+03  d E =-.955739E-02  mag=    20.0000
       N       E                     dE             d eps       ncg     rms          rms(c)
DAV:   1    -0.627122103910E+03   -0.29166E-02   -0.13896E-01 10824   0.760E-01    0.329E-01
DAV:   2    -0.627120814892E+03    0.12890E-02   -0.98735E-03 15444   0.236E-01    0.203E-01
DAV:   3    -0.627120614569E+03    0.20032E-03   -0.15186E-03 14736   0.120E-01    0.108E-01
DAV:   4    -0.627120568038E+03    0.46531E-04   -0.76680E-04 13500   0.644E-02
  34 F= -.62712057E+03 E0= -.62712057E+03  d E =-.138736E-02  mag=    20.0000
       N       E                     dE             d eps       ncg     rms          rms(c)
DAV:   1    -0.627119716750E+03    0.89782E-03   -0.35818E-02 10872   0.376E-01    0.101E-01
DAV:   2    -0.627119705777E+03    0.10973E-04   -0.15545E-03 14280   0.879E-02    0.802E-02
DAV:   3    -0.627119685206E+03    0.20571E-04   -0.12780E-04  7176   0.372E-02
  35 F= -.62711969E+03 E0= -.62711969E+03  d E =0.882832E-03  mag=    20.0000
       N       E                     dE             d eps       ncg     rms          rms(c)
DAV:   1    -0.627122420589E+03   -0.27148E-02   -0.11608E+00 10752   0.205E+00    0.296E-01
DAV:   2    -0.627125590315E+03   -0.31697E-02   -0.32698E-02 13236   0.383E-01    0.226E-01
DAV:   3    -0.627125577370E+03    0.12945E-04   -0.15035E-03 14664   0.850E-02    0.113E-01
DAV:   4    -0.627125458190E+03    0.11918E-03   -0.51243E-04 11712   0.593E-02    0.788E-02
DAV:   5    -0.627125436068E+03    0.22122E-04   -0.21912E-04  7884   0.388E-02
  36 F= -.62712544E+03 E0= -.62712544E+03  d E =-.575086E-02  mag=    20.0000
       N       E                     dE             d eps       ncg     rms          rms(c)
DAV:   1    -0.627128588411E+03   -0.31302E-02   -0.52727E-01 10752   0.141E+00    0.293E-01
DAV:   2    -0.627129273991E+03   -0.68558E-03   -0.17232E-02 13524   0.289E-01    0.184E-01
DAV:   3    -0.627129242471E+03    0.31520E-04   -0.15276E-03 14964   0.103E-01    0.850E-02
DAV:   4    -0.627129176060E+03    0.66411E-04   -0.40710E-04 11124   0.504E-02
  37 F= -.62712918E+03 E0= -.62712918E+03  d E =-.373999E-02  mag=    20.0000
       N       E                     dE             d eps       ncg     rms          rms(c)
DAV:   1    -0.627132813755E+03   -0.35713E-02   -0.70658E-01 10752   0.161E+00    0.309E-01
DAV:   2    -0.627133866249E+03   -0.10525E-02   -0.21256E-02 13740   0.311E-01    0.187E-01
DAV:   3    -0.627133803116E+03    0.63134E-04   -0.14698E-03 14820   0.104E-01    0.103E-01
DAV:   4    -0.627133736538E+03    0.66578E-04   -0.23721E-04  8112   0.435E-02
  38 F= -.62713374E+03 E0= -.62713374E+03  d E =-.456048E-02  mag=    20.0000
       N       E                     dE             d eps       ncg     rms          rms(c)
DAV:   1    -0.627136123022E+03   -0.23199E-02   -0.41687E-01 10752   0.122E+00    0.167E-01
DAV:   2    -0.627137216416E+03   -0.10934E-02   -0.10515E-02 12456   0.209E-01    0.921E-02
DAV:   3    -0.627137239070E+03   -0.22654E-04   -0.40396E-04 10440   0.403E-02
  39 F= -.62713724E+03 E0= -.62713724E+03  d E =-.350253E-02  mag=    20.0000
       N       E                     dE             d eps       ncg     rms          rms(c)
DAV:   1    -0.627136321639E+03    0.89478E-03   -0.36086E-02 10752   0.361E-01    0.795E-02
DAV:   2    -0.627136445900E+03   -0.12426E-03   -0.17136E-03 14028   0.993E-02    0.104E-01
DAV:   3    -0.627136430215E+03    0.15684E-04   -0.12237E-04  6816   0.277E-02
  40 F= -.62713643E+03 E0= -.62713643E+03  d E =0.808855E-03  mag=    20.0000
       N       E                     dE             d eps       ncg     rms          rms(c)
DAV:   1    -0.627135367195E+03    0.10787E-02   -0.42128E-02 10800   0.394E-01    0.644E-02
DAV:   2    -0.627135511588E+03   -0.14439E-03   -0.18033E-03 14508   0.954E-02    0.731E-02
DAV:   3    -0.627135476054E+03    0.35534E-04   -0.11581E-04  6672   0.303E-02
  41 F= -.62713548E+03 E0= -.62713548E+03  d E =0.954161E-03  mag=    20.0000
       N       E                     dE             d eps       ncg     rms          rms(c)
DAV:   1    -0.627137834310E+03   -0.23227E-02   -0.12994E+00 10800   0.217E+00    0.290E-01
DAV:   2    -0.627141370662E+03   -0.35364E-02   -0.35116E-02 12924   0.389E-01    0.178E-01
DAV:   3    -0.627141449020E+03   -0.78359E-04   -0.15868E-03 14544   0.823E-02    0.941E-02
DAV:   4    -0.627141357715E+03    0.91306E-04   -0.25395E-04  9048   0.489E-02
  42 F= -.62714136E+03 E0= -.62714136E+03  d E =-.588166E-02  mag=    20.0000
       N       E                     dE             d eps       ncg     rms          rms(c)
DAV:   1    -0.627139589200E+03    0.18598E-02   -0.84928E-02 10800   0.558E-01    0.106E-01
DAV:   2    -0.627139830291E+03   -0.24109E-03   -0.28825E-03 13788   0.117E-01    0.703E-02
DAV:   3    -0.627139823856E+03    0.64353E-05   -0.12864E-04  7176   0.338E-02
  43 F= -.62713982E+03 E0= -.62713982E+03  d E =0.153386E-02  mag=    20.0000
       N       E                     dE             d eps       ncg     rms          rms(c)
DAV:   1    -0.627141236966E+03   -0.14067E-02   -0.81020E-01 10752   0.172E+00    0.381E-01
DAV:   2    -0.627142339761E+03   -0.11028E-02   -0.31823E-02 14004   0.429E-01    0.394E-01
DAV:   3    -0.627142106554E+03    0.23321E-03   -0.38592E-03 14700   0.138E-01    0.264E-01
DAV:   4    -0.627141846862E+03    0.25969E-03   -0.20313E-03 15216   0.107E-01    0.205E-01
DAV:   5    -0.627141808343E+03    0.38519E-04   -0.54151E-04 12528   0.720E-02
  44 F= -.62714181E+03 E0= -.62714181E+03  d E =-.198449E-02  mag=    20.0000
       N       E                     dE             d eps       ncg     rms          rms(c)
DAV:   1    -0.627146775350E+03   -0.49285E-02   -0.79261E-01 10752   0.172E+00    0.376E-01
DAV:   2    -0.627148101380E+03   -0.13260E-02   -0.27981E-02 13740   0.415E-01    0.368E-01
DAV:   3    -0.627147930613E+03    0.17077E-03   -0.32633E-03 14604   0.128E-01    0.226E-01
DAV:   4    -0.627147678153E+03    0.25246E-03   -0.16724E-03 14760   0.111E-01    0.170E-01
DAV:   5    -0.627147629430E+03    0.48723E-04   -0.50473E-04 12120   0.742E-02
  45 F= -.62714763E+03 E0= -.62714763E+03  d E =-.582109E-02  mag=    20.0000
       N       E                     dE             d eps       ncg     rms          rms(c)
DAV:   1    -0.627149892895E+03   -0.22147E-02   -0.93843E-01 10800   0.183E+00    0.268E-01
DAV:   2    -0.627152433275E+03   -0.25404E-02   -0.25227E-02 12948   0.324E-01    0.141E-01
DAV:   3    -0.627152520430E+03   -0.87156E-04   -0.11233E-03 13848   0.687E-02    0.788E-02
DAV:   4    -0.627152461440E+03    0.58990E-04   -0.16884E-04  7200   0.355E-02
  46 F= -.62715246E+03 E0= -.62715246E+03  d E =-.483201E-02  mag=    20.0000
       N       E                     dE             d eps       ncg     rms          rms(c)
DAV:   1    -0.627156067496E+03   -0.35471E-02   -0.10821E+00 10752   0.198E+00    0.330E-01
DAV:   2    -0.627158352033E+03   -0.22845E-02   -0.29865E-02 13176   0.359E-01    0.198E-01
DAV:   3    -0.627158324694E+03    0.27339E-04   -0.15932E-03 15072   0.103E-01    0.113E-01
DAV:   4    -0.627158234797E+03    0.89898E-04   -0.25979E-04  8436   0.438E-02
  47 F= -.62715823E+03 E0= -.62715823E+03  d E =-.577336E-02  mag=    20.0000
       N       E                     dE             d eps       ncg     rms          rms(c)
DAV:   1    -0.627058462872E+03    0.99862E-01   -0.49215E+01 10752   0.132E+01    0.180E+00
DAV:   2    -0.627196078392E+03   -0.13762E+00   -0.13361E+00 12780   0.231E+00    0.105E+00
DAV:   3    -0.627198430605E+03   -0.23522E-02   -0.52496E-02 15240   0.492E-01    0.546E-01
DAV:   4    -0.627195707735E+03    0.27229E-02   -0.81550E-03 14892   0.214E-01    0.336E-01
DAV:   5    -0.627194300929E+03    0.14068E-02   -0.58712E-03 13056   0.196E-01    0.125E-01
DAV:   6    -0.627194421581E+03   -0.12065E-03   -0.21240E-03 14220   0.104E-01    0.864E-02
DAV:   7    -0.627194403485E+03    0.18096E-04   -0.50347E-04 10920   0.507E-02
  48 F= -.62719440E+03 E0= -.62719440E+03  d E =-.361687E-01  mag=    20.0000
       N       E                     dE             d eps       ncg     rms          rms(c)
DAV:   1    -0.627180713611E+03    0.13708E-01   -0.37840E+00 10752   0.375E+00    0.723E-01
DAV:   2    -0.627186530153E+03   -0.58165E-02   -0.12652E-01 14328   0.817E-01    0.639E-01
DAV:   3    -0.627185375444E+03    0.11547E-02   -0.10351E-02 14580   0.268E-01    0.284E-01
DAV:   4    -0.627184905957E+03    0.46949E-03   -0.16733E-03 15108   0.120E-01    0.194E-01
DAV:   5    -0.627184787983E+03    0.11797E-03   -0.99323E-04 14112   0.796E-02    0.921E-02
DAV:   6    -0.627184782298E+03    0.56851E-05   -0.11282E-04  6492   0.325E-02
  49 F= -.62718478E+03 E0= -.62718478E+03  d E =0.962119E-02  mag=    20.0000
       N       E                     dE             d eps       ncg     rms          rms(c)
DAV:   1    -0.627170075328E+03    0.14713E-01   -0.27242E+00 10752   0.313E+00    0.505E-01
DAV:   2    -0.627177180050E+03   -0.71047E-02   -0.80652E-02 13680   0.622E-01    0.412E-01
DAV:   3    -0.627177066976E+03    0.11307E-03   -0.57137E-03 14904   0.177E-01    0.183E-01
DAV:   4    -0.627176880915E+03    0.18606E-03   -0.11552E-03 14472   0.854E-02    0.136E-01
DAV:   5    -0.627176825349E+03    0.55567E-04   -0.55240E-04 11916   0.607E-02
  50 F= -.62717683E+03 E0= -.62717683E+03  d E =0.795695E-02  mag=    20.0000
       N       E                     dE             d eps       ncg     rms          rms(c)
DAV:   1    -0.627178139479E+03   -0.12586E-02   -0.27195E+00 10752   0.310E+00    0.385E-01
DAV:   2    -0.627185509495E+03   -0.73700E-02   -0.71010E-02 12756   0.535E-01    0.238E-01
DAV:   3    -0.627185634195E+03   -0.12470E-03   -0.27087E-03 15360   0.102E-01    0.123E-01
DAV:   4    -0.627185470361E+03    0.16383E-03   -0.31943E-04 10116   0.464E-02    0.832E-02
DAV:   5    -0.627185409595E+03    0.60766E-04   -0.44956E-04 10584   0.529E-02
  51 F= -.62718541E+03 E0= -.62718541E+03  d E =-.858425E-02  mag=    20.0000
       N       E                     dE             d eps       ncg     rms          rms(c)
DAV:   1    -0.627186856427E+03   -0.13861E-02   -0.17876E+00 10776   0.249E+00    0.435E-01
DAV:   2    -0.627192000685E+03   -0.51443E-02   -0.48117E-02 12888   0.452E-01    0.270E-01
DAV:   3    -0.627192290044E+03   -0.28936E-03   -0.28181E-03 14700   0.108E-01    0.136E-01
DAV:   4    -0.627192141546E+03    0.14850E-03   -0.71199E-04 12888   0.667E-02    0.827E-02
DAV:   5    -0.627192107559E+03    0.33986E-04   -0.21931E-04  8256   0.448E-02
  52 F= -.62719211E+03 E0= -.62719211E+03  d E =-.669796E-02  mag=    20.0000
       N       E                     dE             d eps       ncg     rms          rms(c)
DAV:   1    -0.627190785824E+03    0.13557E-02   -0.72639E-02 10776   0.507E-01    0.845E-02
DAV:   2    -0.627190994682E+03   -0.20886E-03   -0.20380E-03 12768   0.986E-02    0.696E-02
DAV:   3    -0.627190994807E+03   -0.12530E-06   -0.10413E-04  6456   0.257E-02
  53 F= -.62719099E+03 E0= -.62719099E+03  d E =0.111275E-02  mag=    20.0000
       N       E                     dE             d eps       ncg     rms          rms(c)
DAV:   1    -0.627194260242E+03   -0.32656E-02   -0.10513E+00 10752   0.197E+00    0.365E-01
DAV:   2    -0.627195880061E+03   -0.16198E-02   -0.33812E-02 13728   0.398E-01    0.258E-01
DAV:   3    -0.627195695785E+03    0.18428E-03   -0.20277E-03 14856   0.125E-01    0.144E-01
DAV:   4    -0.627195590580E+03    0.10520E-03   -0.83004E-04 12360   0.690E-02    0.842E-02
DAV:   5    -0.627195569477E+03    0.21102E-04   -0.18273E-04  7776   0.433E-02
  54 F= -.62719557E+03 E0= -.62719557E+03  d E =-.457467E-02  mag=    20.0000
       N       E                     dE             d eps       ncg     rms          rms(c)
DAV:   1    -0.627197748071E+03   -0.21575E-02   -0.15101E-01 10752   0.739E-01    0.184E-01
DAV:   2    -0.627197952422E+03   -0.20435E-03   -0.49229E-03 13512   0.158E-01    0.123E-01
DAV:   3    -0.627197946118E+03    0.63042E-05   -0.37811E-04 10656   0.561E-02
  55 F= -.62719795E+03 E0= -.62719795E+03  d E =-.237664E-02  mag=    20.0000
       N       E                     dE             d eps       ncg     rms          rms(c)
DAV:   1    -0.627195378262E+03    0.25742E-02   -0.16675E-01 10800   0.763E-01    0.914E-02
DAV:   2    -0.627195788008E+03   -0.40975E-03   -0.46061E-03 12960   0.135E-01    0.555E-02
DAV:   3    -0.627195784363E+03    0.36443E-05   -0.15706E-04  7728   0.312E-02
  56 F= -.62719578E+03 E0= -.62719578E+03  d E =0.216175E-02  mag=    20.0000
       N       E                     dE             d eps       ncg     rms          rms(c)
DAV:   1    -0.627197884895E+03   -0.20969E-02   -0.40369E-01 10800   0.119E+00    0.185E-01
DAV:   2    -0.627199070155E+03   -0.11853E-02   -0.10866E-02 12948   0.221E-01    0.102E-01
DAV:   3    -0.627199156096E+03   -0.85941E-04   -0.79803E-04 13104   0.553E-02
  57 F= -.62719916E+03 E0= -.62719916E+03  d E =-.337173E-02  mag=    20.0000
       N       E                     dE             d eps       ncg     rms          rms(c)
DAV:   1    -0.627200972780E+03   -0.19026E-02   -0.11460E-01 11016   0.675E-01    0.209E-01
DAV:   2    -0.627200574878E+03    0.39790E-03   -0.51883E-03 15216   0.169E-01    0.135E-01
DAV:   3    -0.627200480913E+03    0.93966E-04   -0.72547E-04 12672   0.815E-02
  58 F= -.62720048E+03 E0= -.62720048E+03  d E =-.132482E-02  mag=    20.0000
       N       E                     dE             d eps       ncg     rms          rms(c)
DAV:   1    -0.627202210673E+03   -0.16358E-02   -0.16782E-01 10752   0.767E-01    0.101E-01
DAV:   2    -0.627202613415E+03   -0.40274E-03   -0.45483E-03 13404   0.136E-01    0.786E-02
DAV:   3    -0.627202590009E+03    0.23406E-04   -0.16120E-04  7692   0.330E-02
  59 F= -.62720259E+03 E0= -.62720259E+03  d E =-.210910E-02  mag=    20.0000
       N       E                     dE             d eps       ncg     rms          rms(c)
DAV:   1    -0.627205367191E+03   -0.27538E-02   -0.12815E+00 10752   0.213E+00    0.315E-01
DAV:   2    -0.627208647244E+03   -0.32801E-02   -0.34427E-02 13092   0.381E-01    0.208E-01
DAV:   3    -0.627208652797E+03   -0.55535E-05   -0.17477E-03 15180   0.979E-02    0.976E-02
DAV:   4    -0.627208557741E+03    0.95056E-04   -0.19798E-04  8136   0.429E-02
  60 F= -.62720856E+03 E0= -.62720856E+03  d E =-.596773E-02  mag=    20.0000
       N       E                     dE             d eps       ncg     rms          rms(c)
DAV:   1    -0.627210389365E+03   -0.17366E-02   -0.17154E-01 10800   0.770E-01    0.105E-01
DAV:   2    -0.627210796491E+03   -0.40713E-03   -0.41868E-03 13248   0.132E-01    0.655E-02
DAV:   3    -0.627210804971E+03   -0.84806E-05   -0.24367E-04  8712   0.349E-02
  61 F= -.62721080E+03 E0= -.62721080E+03  d E =-.224723E-02  mag=    20.0000
       N       E                     dE             d eps       ncg     rms          rms(c)
DAV:   1    -0.627212575638E+03   -0.17791E-02   -0.17913E-01 10752   0.803E-01    0.124E-01
DAV:   2    -0.627213050471E+03   -0.47483E-03   -0.48929E-03 13680   0.147E-01    0.832E-02
DAV:   3    -0.627213053636E+03   -0.31650E-05   -0.25854E-04  8748   0.362E-02
  62 F= -.62721305E+03 E0= -.62721305E+03  d E =-.224866E-02  mag=    20.0000
       N       E                     dE             d eps       ncg     rms          rms(c)
DAV:   1    -0.627215437229E+03   -0.23868E-02   -0.17936E+00 10752   0.250E+00    0.361E-01
DAV:   2    -0.627220242307E+03   -0.48051E-02   -0.46910E-02 12984   0.435E-01    0.230E-01
DAV:   3    -0.627220336975E+03   -0.94669E-04   -0.21649E-03 14940   0.967E-02    0.109E-01
DAV:   4    -0.627220196458E+03    0.14052E-03   -0.41063E-04 11364   0.523E-02    0.686E-02
DAV:   5    -0.627220166965E+03    0.29493E-04   -0.21324E-04  8076   0.421E-02
  63 F= -.62722017E+03 E0= -.62722017E+03  d E =-.711333E-02  mag=    20.0000
       N       E                     dE             d eps       ncg     rms          rms(c)
DAV:   1    -0.627222310557E+03   -0.21141E-02   -0.26123E-01 10752   0.960E-01    0.159E-01
DAV:   2    -0.627222942171E+03   -0.63161E-03   -0.82276E-03 14292   0.207E-01    0.144E-01
DAV:   3    -0.627222936418E+03    0.57526E-05   -0.82516E-04 12936   0.653E-02
  64 F= -.62722294E+03 E0= -.62722294E+03  d E =-.276945E-02  mag=    20.0000
       N       E                     dE             d eps       ncg     rms          rms(c)
DAV:   1    -0.627225597365E+03   -0.26552E-02   -0.12603E+00 10800   0.209E+00    0.279E-01
DAV:   2    -0.627229017720E+03   -0.34204E-02   -0.32098E-02 12648   0.354E-01    0.156E-01
DAV:   3    -0.627229104782E+03   -0.87062E-04   -0.12188E-03 14256   0.656E-02    0.836E-02
DAV:   4    -0.627229031589E+03    0.73192E-04   -0.11367E-04  7188   0.310E-02
  65 F= -.62722903E+03 E0= -.62722903E+03  d E =-.609517E-02  mag=    20.0000
       N       E                     dE             d eps       ncg     rms          rms(c)
DAV:   1    -0.627147823241E+03    0.81282E-01   -0.20507E+01 10800   0.845E+00    0.109E+00
DAV:   2    -0.627204194929E+03   -0.56372E-01   -0.53663E-01 12528   0.144E+00    0.623E-01
DAV:   3    -0.627205636639E+03   -0.14417E-02   -0.21181E-02 15504   0.275E-01    0.322E-01
DAV:   4    -0.627204539733E+03    0.10969E-02   -0.23124E-03 14808   0.127E-01    0.202E-01
DAV:   5    -0.627204056301E+03    0.48343E-03   -0.22197E-03 13032   0.129E-01    0.612E-02
DAV:   6    -0.627204146153E+03   -0.89852E-04   -0.98374E-04 12792   0.679E-02
  66 F= -.62720415E+03 E0= -.62720415E+03  d E =0.248854E-01  mag=    20.0000
       N       E                     dE             d eps       ncg     rms          rms(c)
DAV:   1    -0.627150808064E+03    0.53248E-01   -0.30766E+01 10800   0.103E+01    0.135E+00
DAV:   2    -0.627235725052E+03   -0.84917E-01   -0.82869E-01 12756   0.178E+00    0.836E-01
DAV:   3    -0.627237049112E+03   -0.13241E-02   -0.34193E-02 15372   0.398E-01    0.442E-01
DAV:   4    -0.627235457929E+03    0.15912E-02   -0.47299E-03 14976   0.160E-01    0.274E-01
DAV:   5    -0.627234481084E+03    0.97684E-03   -0.36208E-03 13116   0.160E-01    0.996E-02
DAV:   6    -0.627234613548E+03   -0.13246E-03   -0.18329E-03 14364   0.899E-02    0.727E-02
DAV:   7    -0.627234577378E+03    0.36171E-04   -0.26503E-04  8376   0.414E-02
  67 F= -.62723458E+03 E0= -.62723458E+03  d E =-.304312E-01  mag=    20.0000
       N       E                     dE             d eps       ncg     rms          rms(c)
DAV:   1    -0.627234228230E+03    0.38532E-03   -0.11456E-02 11088   0.209E-01    0.527E-02
DAV:   2    -0.627234241755E+03   -0.13525E-04   -0.33907E-04  9480   0.529E-02
  68 F= -.62723424E+03 E0= -.62723424E+03  d E =0.335623E-03  mag=    20.0000
       N       E                     dE             d eps       ncg     rms          rms(c)
DAV:   1    -0.627236801411E+03   -0.25732E-02   -0.15724E+00 10800   0.233E+00    0.287E-01
DAV:   2    -0.627241051026E+03   -0.42496E-02   -0.41088E-02 12552   0.394E-01    0.149E-01
DAV:   3    -0.627241144882E+03   -0.93855E-04   -0.13896E-03 14352   0.673E-02    0.814E-02
DAV:   4    -0.627241072043E+03    0.72839E-04   -0.14082E-04  7260   0.335E-02
  69 F= -.62724107E+03 E0= -.62724107E+03  d E =-.683029E-02  mag=    20.0000
       N       E                     dE             d eps       ncg     rms          rms(c)
DAV:   1    -0.627242408331E+03   -0.12634E-02   -0.74420E-02 10776   0.503E-01    0.788E-02
DAV:   2    -0.627242587859E+03   -0.17953E-03   -0.17038E-03 12864   0.832E-02    0.413E-02
DAV:   3    -0.627242595509E+03   -0.76504E-05   -0.91514E-05  6432   0.217E-02
  70 F= -.62724260E+03 E0= -.62724260E+03  d E =-.152347E-02  mag=    20.0000
       N       E                     dE             d eps       ncg     rms          rms(c)
DAV:   1    -0.627234341887E+03    0.82460E-02   -0.10154E+00 10848   0.187E+00    0.219E-01
DAV:   2    -0.627237045365E+03   -0.27035E-02   -0.26407E-02 12612   0.319E-01    0.125E-01
DAV:   3    -0.627237113215E+03   -0.67850E-04   -0.11253E-03 14160   0.619E-02    0.664E-02
DAV:   4    -0.627237063405E+03    0.49810E-04   -0.96712E-05  6648   0.290E-02
  71 F= -.62723706E+03 E0= -.62723706E+03  d E =0.553210E-02  mag=    20.0000
       N       E                     dE             d eps       ncg     rms          rms(c)
DAV:   1    -0.627128047857E+03    0.10907E+00   -0.30656E+01 10800   0.102E+01    0.119E+00
DAV:   2    -0.627207896418E+03   -0.79849E-01   -0.78981E-01 12576   0.172E+00    0.640E-01
DAV:   3    -0.627209206419E+03   -0.13100E-02   -0.30123E-02 15432   0.308E-01    0.376E-01
DAV:   4    -0.627207775500E+03    0.14309E-02   -0.31835E-03 15276   0.152E-01    0.248E-01
DAV:   5    -0.627207170970E+03    0.60453E-03   -0.21288E-03 12852   0.121E-01    0.104E-01
DAV:   6    -0.627207271089E+03   -0.10012E-03   -0.10564E-03 13272   0.644E-02    0.605E-02
DAV:   7    -0.627207244772E+03    0.26317E-04   -0.11890E-04  6480   0.347E-02
  72 F= -.62720724E+03 E0= -.62720724E+03  d E =0.298186E-01  mag=    20.0000
       N       E                     dE             d eps       ncg     rms          rms(c)
DAV:   1    -0.627105864032E+03    0.10141E+00   -0.52960E+01 10848   0.134E+01    0.160E+00
DAV:   2    -0.627249002010E+03   -0.14314E+00   -0.14185E+00 12852   0.228E+00    0.927E-01
DAV:   3    -0.627250588724E+03   -0.15867E-02   -0.55144E-02 15192   0.456E-01    0.534E-01
DAV:   4    -0.627247984774E+03    0.26040E-02   -0.83719E-03 15048   0.204E-01    0.334E-01
DAV:   5    -0.627246517218E+03    0.14676E-02   -0.52484E-03 12900   0.184E-01    0.121E-01
DAV:   6    -0.627246678657E+03   -0.16144E-03   -0.22264E-03 14724   0.998E-02    0.835E-02
DAV:   7    -0.627246657322E+03    0.21335E-04   -0.42399E-04 10440   0.478E-02
  73 F= -.62724666E+03 E0= -.62724666E+03  d E =-.394125E-01  mag=    20.0000
       N       E                     dE             d eps       ncg     rms          rms(c)
DAV:   1    -0.627248078006E+03   -0.13993E-02   -0.84175E-02 10824   0.546E-01    0.105E-01
DAV:   2    -0.627248287106E+03   -0.20910E-03   -0.29887E-03 14136   0.116E-01    0.785E-02
DAV:   3    -0.627248272867E+03    0.14239E-04   -0.17768E-04  7788   0.387E-02
  74 F= -.62724827E+03 E0= -.62724827E+03  d E =-.161555E-02  mag=    20.0000
       N       E                     dE             d eps       ncg     rms          rms(c)
DAV:   1    -0.627250969263E+03   -0.26822E-02   -0.13623E+00 10800   0.217E+00    0.287E-01
DAV:   2    -0.627254667003E+03   -0.36977E-02   -0.35636E-02 13020   0.373E-01    0.181E-01
DAV:   3    -0.627254734345E+03   -0.67343E-04   -0.15073E-03 14616   0.755E-02    0.924E-02
DAV:   4    -0.627254632922E+03    0.10142E-03   -0.22886E-04  8712   0.474E-02    0.628E-02
DAV:   5    -0.627254632247E+03    0.67509E-06   -0.35437E-04 10356   0.438E-02
  75 F= -.62725463E+03 E0= -.62725463E+03  d E =-.635938E-02  mag=    20.0000
       N       E                     dE             d eps       ncg     rms          rms(c)
DAV:   1    -0.627256851986E+03   -0.22191E-02   -0.28289E-01 10776   0.993E-01    0.163E-01
DAV:   2    -0.627257621384E+03   -0.76940E-03   -0.86925E-03 13620   0.209E-01    0.156E-01
DAV:   3    -0.627257614575E+03    0.68085E-05   -0.71627E-04 12708   0.587E-02
  76 F= -.62725761E+03 E0= -.62725761E+03  d E =-.298233E-02  mag=    20.0000
       N       E                     dE             d eps       ncg     rms          rms(c)
DAV:   1    -0.627260574942E+03   -0.29536E-02   -0.10334E+00 10800   0.188E+00    0.271E-01
DAV:   2    -0.627263362199E+03   -0.27873E-02   -0.27236E-02 12936   0.332E-01    0.166E-01
DAV:   3    -0.627263428594E+03   -0.66395E-04   -0.15783E-03 15012   0.843E-02    0.806E-02
DAV:   4    -0.627263359007E+03    0.69587E-04   -0.15619E-04  7704   0.366E-02
  77 F= -.62726336E+03 E0= -.62726336E+03  d E =-.574443E-02  mag=    20.0000
       N       E                     dE             d eps       ncg     rms          rms(c)
DAV:   1    -0.627263647673E+03   -0.21908E-03   -0.24131E-02 10848   0.291E-01    0.920E-02
DAV:   2    -0.627263684536E+03   -0.36863E-04   -0.16210E-03 13992   0.110E-01    0.130E-01
DAV:   3    -0.627263659980E+03    0.24556E-04   -0.19496E-04  7704   0.335E-02
  78 F= -.62726366E+03 E0= -.62726366E+03  d E =-.300973E-03  mag=    20.0000
       N       E                     dE             d eps       ncg     rms          rms(c)
DAV:   1    -0.627266606143E+03   -0.29216E-02   -0.15551E+00 10800   0.233E+00    0.302E-01
DAV:   2    -0.627270697014E+03   -0.40909E-02   -0.41560E-02 13032   0.400E-01    0.178E-01
DAV:   3    -0.627270734594E+03   -0.37580E-04   -0.16192E-03 14844   0.854E-02    0.951E-02
DAV:   4    -0.627270633897E+03    0.10070E-03   -0.22784E-04  8640   0.434E-02    0.550E-02
DAV:   5    -0.627270611373E+03    0.22523E-04   -0.20405E-04  7680   0.398E-02
  79 F= -.62727061E+03 E0= -.62727061E+03  d E =-.695139E-02  mag=    20.0000
       N       E                     dE             d eps       ncg     rms          rms(c)
DAV:   1    -0.627272162916E+03   -0.15290E-02   -0.24676E+00 10800   0.293E+00    0.437E-01
DAV:   2    -0.627278844568E+03   -0.66817E-02   -0.71973E-02 13680   0.577E-01    0.393E-01
DAV:   3    -0.627278905890E+03   -0.61322E-04   -0.57769E-03 15768   0.157E-01    0.221E-01
DAV:   4    -0.627278671488E+03    0.23440E-03   -0.16413E-03 15228   0.942E-02    0.175E-01
DAV:   5    -0.627278629884E+03    0.41604E-04   -0.73842E-04 12660   0.594E-02
  80 F= -.62727863E+03 E0= -.62727863E+03  d E =-.801851E-02  mag=    20.0000
       N       E                     dE             d eps       ncg     rms          rms(c)
DAV:   1    -0.627280630141E+03   -0.19587E-02   -0.13036E-01 10752   0.672E-01    0.172E-01
DAV:   2    -0.627280940158E+03   -0.31002E-03   -0.72647E-03 14112   0.211E-01    0.248E-01
DAV:   3    -0.627280869499E+03    0.70659E-04   -0.69586E-04 11700   0.555E-02
  81 F= -.62728087E+03 E0= -.62728087E+03  d E =-.223961E-02  mag=    20.0000
       N       E                     dE             d eps       ncg     rms          rms(c)
DAV:   1    -0.627283848622E+03   -0.29085E-02   -0.15726E+00 10752   0.235E+00    0.414E-01
DAV:   2    -0.627287216694E+03   -0.33681E-02   -0.44163E-02 13320   0.438E-01    0.250E-01
DAV:   3    -0.627287245995E+03   -0.29301E-04   -0.29290E-03 15144   0.132E-01    0.147E-01
DAV:   4    -0.627287104482E+03    0.14151E-03   -0.64498E-04 12780   0.600E-02    0.734E-02
DAV:   5    -0.627287075189E+03    0.29293E-04   -0.21375E-04  8880   0.459E-02
  82 F= -.62728708E+03 E0= -.62728708E+03  d E =-.620569E-02  mag=    20.0000
       N       E                     dE             d eps       ncg     rms          rms(c)
DAV:   1    -0.627290404954E+03   -0.33005E-02   -0.23291E-01 10752   0.924E-01    0.222E-01
DAV:   2    -0.627290442736E+03   -0.37782E-04   -0.86800E-03 14592   0.209E-01    0.156E-01
DAV:   3    -0.627290376693E+03    0.66043E-04   -0.97492E-04 14484   0.814E-02
  83 F= -.62729038E+03 E0= -.62729038E+03  d E =-.330150E-02  mag=    20.0000
       N       E                     dE             d eps       ncg     rms          rms(c)
DAV:   1    -0.627293398543E+03   -0.29558E-02   -0.20337E+00 10752   0.264E+00    0.353E-01
DAV:   2    -0.627298490185E+03   -0.50916E-02   -0.54507E-02 13236   0.458E-01    0.221E-01
DAV:   3    -0.627298541689E+03   -0.51504E-04   -0.26444E-03 15672   0.102E-01    0.134E-01
DAV:   4    -0.627298396830E+03    0.14486E-03   -0.39100E-04 11064   0.504E-02    0.879E-02
DAV:   5    -0.627298368740E+03    0.28090E-04   -0.36101E-04  9600   0.434E-02
  84 F= -.62729837E+03 E0= -.62729837E+03  d E =-.799205E-02  mag=    20.0000
       N       E                     dE             d eps       ncg     rms          rms(c)
DAV:   1    -0.627301180039E+03   -0.27832E-02   -0.48544E-01 10752   0.130E+00    0.225E-01
DAV:   2    -0.627302495973E+03   -0.13159E-02   -0.13457E-02 13020   0.240E-01    0.138E-01
DAV:   3    -0.627302555540E+03   -0.59567E-04   -0.84126E-04 13404   0.614E-02
  85 F= -.62730256E+03 E0= -.62730256E+03  d E =-.418680E-02  mag=    20.0000
       N       E                     dE             d eps       ncg     rms          rms(c)
DAV:   1    -0.627305564946E+03   -0.30690E-02   -0.74346E-01 10752   0.160E+00    0.233E-01
DAV:   2    -0.627307319836E+03   -0.17549E-02   -0.19835E-02 13188   0.282E-01    0.144E-01
DAV:   3    -0.627307329909E+03   -0.10073E-04   -0.96797E-04 14088   0.690E-02
  86 F= -.62730733E+03 E0= -.62730733E+03  d E =-.477437E-02  mag=    20.0000
       N       E                     dE             d eps       ncg     rms          rms(c)
DAV:   1    -0.627310087613E+03   -0.27678E-02   -0.28282E-01 10752   0.995E-01    0.187E-01
DAV:   2    -0.627310604907E+03   -0.51729E-03   -0.83804E-03 14040   0.193E-01    0.131E-01
DAV:   3    -0.627310570734E+03    0.34173E-04   -0.63035E-04 12936   0.637E-02
  87 F= -.62731057E+03 E0= -.62731057E+03  d E =-.324082E-02  mag=    20.0000
       N       E                     dE             d eps       ncg     rms          rms(c)
DAV:   1    -0.627258986360E+03    0.51619E-01   -0.12475E+01 10752   0.656E+00    0.959E-01
DAV:   2    -0.627289594689E+03   -0.30608E-01   -0.34750E-01 13368   0.117E+00    0.626E-01
DAV:   3    -0.627289799211E+03   -0.20452E-03   -0.17833E-02 15288   0.304E-01    0.307E-01
DAV:   4    -0.627289036196E+03    0.76301E-03   -0.22853E-03 14772   0.114E-01    0.194E-01
DAV:   5    -0.627288768891E+03    0.26730E-03   -0.13708E-03 13272   0.847E-02    0.595E-02
DAV:   6    -0.627288775255E+03   -0.63639E-05   -0.24420E-04  8532   0.426E-02
  88 F= -.62728878E+03 E0= -.62728878E+03  d E =0.217955E-01  mag=    20.0000
       N       E                     dE             d eps       ncg     rms          rms(c)
DAV:   1    -0.627276837311E+03    0.11932E-01   -0.16377E+01 10752   0.753E+00    0.114E+00
DAV:   2    -0.627315297332E+03   -0.38460E-01   -0.47870E-01 13524   0.137E+00    0.749E-01
DAV:   3    -0.627314607605E+03    0.68973E-03   -0.24655E-02 15192   0.388E-01    0.376E-01
DAV:   4    -0.627313497215E+03    0.11104E-02   -0.40770E-03 14820   0.149E-01    0.233E-01
DAV:   5    -0.627313171317E+03    0.32590E-03   -0.19868E-03 14016   0.995E-02    0.880E-02
DAV:   6    -0.627313157664E+03    0.13653E-04   -0.44111E-04 10716   0.562E-02
  89 F= -.62731316E+03 E0= -.62731316E+03  d E =-.243824E-01  mag=    20.0000
       N       E                     dE             d eps       ncg     rms          rms(c)
DAV:   1    -0.627314708288E+03   -0.15370E-02   -0.15088E-01 10752   0.748E-01    0.235E-01
DAV:   2    -0.627314835461E+03   -0.12717E-03   -0.62123E-03 13488   0.191E-01    0.183E-01
DAV:   3    -0.627314799277E+03    0.36184E-04   -0.81177E-04 13524   0.725E-02
  90 F= -.62731480E+03 E0= -.62731480E+03  d E =-.164161E-02  mag=    20.0000
       N       E                     dE             d eps       ncg     rms          rms(c)
DAV:   1    -0.627314809931E+03    0.25530E-04   -0.26766E-02 10752   0.296E-01    0.798E-02
DAV:   2    -0.627314972390E+03   -0.16246E-03   -0.21664E-03 14004   0.997E-02    0.109E-01
DAV:   3    -0.627314921433E+03    0.50957E-04   -0.14494E-04  7356   0.343E-02
  91 F= -.62731492E+03 E0= -.62731492E+03  d E =-.122157E-03  mag=    20.0000
       N       E                     dE             d eps       ncg     rms          rms(c)
DAV:   1    -0.627317908669E+03   -0.29363E-02   -0.18019E+00 10800   0.249E+00    0.322E-01
DAV:   2    -0.627322672759E+03   -0.47641E-02   -0.49081E-02 12780   0.429E-01    0.190E-01
DAV:   3    -0.627322702175E+03   -0.29417E-04   -0.20804E-03 15084   0.977E-02    0.982E-02
DAV:   4    -0.627322604419E+03    0.97756E-04   -0.23775E-04  8832   0.424E-02
  92 F= -.62732260E+03 E0= -.62732260E+03  d E =-.768299E-02  mag=    20.0000
       N       E                     dE             d eps       ncg     rms          rms(c)
DAV:   1    -0.627318865511E+03    0.38367E-02   -0.25455E-01 10848   0.939E-01    0.134E-01
DAV:   2    -0.627319675762E+03   -0.81025E-03   -0.75779E-03 13032   0.175E-01    0.972E-02
DAV:   3    -0.627319685747E+03   -0.99846E-05   -0.32470E-04 10152   0.420E-02
  93 F= -.62731969E+03 E0= -.62731969E+03  d E =0.291867E-02  mag=    20.0000
       N       E                     dE             d eps       ncg     rms          rms(c)
DAV:   1    -0.627322256184E+03   -0.25804E-02   -0.18722E+00 10752   0.253E+00    0.420E-01
DAV:   2    -0.627327266360E+03   -0.50102E-02   -0.51483E-02 12588   0.454E-01    0.228E-01
DAV:   3    -0.627327561711E+03   -0.29535E-03   -0.32219E-03 15756   0.121E-01    0.131E-01
DAV:   4    -0.627327453236E+03    0.10847E-03   -0.44547E-04 11124   0.473E-02    0.740E-02
DAV:   5    -0.627327396312E+03    0.56924E-04   -0.13755E-04  7668   0.405E-02
  94 F= -.62732740E+03 E0= -.62732740E+03  d E =-.771057E-02  mag=    20.0000
       N       E                     dE             d eps       ncg     rms          rms(c)
DAV:   1    -0.627328586464E+03   -0.11332E-02   -0.41430E-02 10992   0.382E-01    0.597E-02
DAV:   2    -0.627328689123E+03   -0.10266E-03   -0.11863E-03 12444   0.724E-02    0.425E-02
DAV:   3    -0.627328686621E+03    0.25017E-05   -0.48744E-05  6012   0.187E-02
  95 F= -.62732869E+03 E0= -.62732869E+03  d E =-.129031E-02  mag=    20.0000
       N       E                     dE             d eps       ncg     rms          rms(c)
DAV:   1    -0.627332980133E+03   -0.42910E-02   -0.18147E+00 10752   0.253E+00    0.422E-01
DAV:   2    -0.627336542169E+03   -0.35620E-02   -0.55015E-02 13752   0.475E-01    0.268E-01
DAV:   3    -0.627336374617E+03    0.16755E-03   -0.32895E-03 15036   0.147E-01    0.126E-01
DAV:   4    -0.627336242500E+03    0.13212E-03   -0.66539E-04 12612   0.643E-02    0.742E-02
DAV:   5    -0.627336218636E+03    0.23864E-04   -0.20856E-04  8268   0.401E-02
  96 F= -.62733622E+03 E0= -.62733622E+03  d E =-.753201E-02  mag=    20.0000
       N       E                     dE             d eps       ncg     rms          rms(c)
DAV:   1    -0.627335533100E+03    0.70940E-03   -0.33145E-02 10752   0.357E-01    0.144E-01
DAV:   2    -0.627335551245E+03   -0.18145E-04   -0.31016E-03 15324   0.146E-01    0.169E-01
DAV:   3    -0.627335464784E+03    0.86462E-04   -0.43306E-04 10980   0.532E-02
  97 F= -.62733546E+03 E0= -.62733546E+03  d E =0.753852E-03  mag=    20.0000
       N       E                     dE             d eps       ncg     rms          rms(c)
DAV:   1    -0.627337521956E+03   -0.19707E-02   -0.17336E-01 10752   0.784E-01    0.141E-01
DAV:   2    -0.627338072487E+03   -0.55053E-03   -0.63835E-03 13908   0.178E-01    0.134E-01
DAV:   3    -0.627338022849E+03    0.49638E-04   -0.57018E-04 11820   0.561E-02
  98 F= -.62733802E+03 E0= -.62733802E+03  d E =-.255807E-02  mag=    20.0000
       N       E                     dE             d eps       ncg     rms          rms(c)
DAV:   1    -0.627341443567E+03   -0.33711E-02   -0.14371E+00 10752   0.223E+00    0.435E-01
DAV:   2    -0.627344354510E+03   -0.29109E-02   -0.41901E-02 13560   0.425E-01    0.254E-01
DAV:   3    -0.627344423404E+03   -0.68894E-04   -0.30951E-03 15216   0.138E-01    0.136E-01
DAV:   4    -0.627344299554E+03    0.12385E-03   -0.65622E-04 12876   0.573E-02    0.722E-02
DAV:   5    -0.627344257963E+03    0.41591E-04   -0.16123E-04  8076   0.441E-02
  99 F= -.62734426E+03 E0= -.62734426E+03  d E =-.623511E-02  mag=    20.0000
       N       E                     dE             d eps       ncg     rms          rms(c)
DAV:   1    -0.627347850967E+03   -0.35514E-02   -0.31460E-01 10752   0.108E+00    0.253E-01
DAV:   2    -0.627347947093E+03   -0.96126E-04   -0.11138E-02 14016   0.229E-01    0.152E-01
DAV:   3    -0.627347862977E+03    0.84117E-04   -0.92061E-04 14076   0.893E-02
 100 F= -.62734786E+03 E0= -.62734786E+03  d E =-.360501E-02  mag=    20.0000
       N       E                     dE             d eps       ncg     rms          rms(c)
DAV:   1    -0.627349239549E+03   -0.12925E-02   -0.39760E+00 10752   0.371E+00    0.524E-01
DAV:   2    -0.627359141155E+03   -0.99016E-02   -0.11213E-01 13152   0.653E-01    0.340E-01
DAV:   3    -0.627359087949E+03    0.53206E-04   -0.52230E-03 15504   0.169E-01    0.177E-01
DAV:   4    -0.627358844831E+03    0.24312E-03   -0.70710E-04 12720   0.651E-02    0.110E-01
DAV:   5    -0.627358775188E+03    0.69643E-04   -0.48726E-04 11220   0.511E-02
 101 F= -.62735878E+03 E0= -.62735878E+03  d E =-.109122E-01  mag=    20.0000
       N       E                     dE             d eps       ncg     rms          rms(c)
DAV:   1    -0.627356297640E+03    0.25472E-02   -0.21041E-01 10752   0.871E-01    0.160E-01
DAV:   2    -0.627356600909E+03   -0.30327E-03   -0.70912E-03 14076   0.178E-01    0.116E-01
DAV:   3    -0.627356551330E+03    0.49580E-04   -0.48487E-04 11868   0.606E-02
 102 F= -.62735655E+03 E0= -.62735655E+03  d E =0.222386E-02  mag=    20.0000
       N       E                     dE             d eps       ncg     rms          rms(c)
DAV:   1    -0.627360927322E+03   -0.43264E-02   -0.14235E+00 10752   0.225E+00    0.434E-01
DAV:   2    -0.627363254483E+03   -0.23272E-02   -0.47710E-02 13968   0.466E-01    0.340E-01
DAV:   3    -0.627363007694E+03    0.24679E-03   -0.37216E-03 15036   0.156E-01    0.156E-01
DAV:   4    -0.627362875285E+03    0.13241E-03   -0.64832E-04 12216   0.633E-02    0.106E-01
DAV:   5    -0.627362824614E+03    0.50672E-04   -0.17488E-04  8004   0.449E-02
 103 F= -.62736282E+03 E0= -.62736282E+03  d E =-.627328E-02  mag=    20.0000
       N       E                     dE             d eps       ncg     rms          rms(c)
DAV:   1    -0.627365851849E+03   -0.29766E-02   -0.38996E-01 10752   0.118E+00    0.245E-01
DAV:   2    -0.627366712908E+03   -0.86106E-03   -0.14036E-02 14412   0.263E-01    0.203E-01
DAV:   3    -0.627366622975E+03    0.89934E-04   -0.13207E-03 14484   0.936E-02    0.882E-02
DAV:   4    -0.627366594081E+03    0.28894E-04   -0.12315E-04  6924   0.321E-02
 104 F= -.62736659E+03 E0= -.62736659E+03  d E =-.376947E-02  mag=    20.0000
       N       E                     dE             d eps       ncg     rms          rms(c)
DAV:   1    -0.627369694698E+03   -0.30717E-02   -0.15699E+00 10752   0.234E+00    0.320E-01
DAV:   2    -0.627373546653E+03   -0.38520E-02   -0.43417E-02 12960   0.400E-01    0.183E-01
DAV:   3    -0.627373568749E+03   -0.22096E-04   -0.19116E-03 15336   0.956E-02    0.104E-01
DAV:   4    -0.627373479063E+03    0.89686E-04   -0.25948E-04  8580   0.433E-02
 105 F= -.62737348E+03 E0= -.62737348E+03  d E =-.688498E-02  mag=    20.0000
       N       E                     dE             d eps       ncg     rms          rms(c)
DAV:   1    -0.627376244541E+03   -0.26758E-02   -0.66588E-01 10800   0.151E+00    0.221E-01
DAV:   2    -0.627377954529E+03   -0.17100E-02   -0.17909E-02 13164   0.269E-01    0.137E-01
DAV:   3    -0.627378007367E+03   -0.52838E-04   -0.11301E-03 14412   0.674E-02    0.821E-02
DAV:   4    -0.627377953023E+03    0.54344E-04   -0.14808E-04  7656   0.392E-02
 106 F= -.62737795E+03 E0= -.62737795E+03  d E =-.447396E-02  mag=    20.0000
       N       E                     dE             d eps       ncg     rms          rms(c)
DAV:   1    -0.627374778681E+03    0.32287E-02   -0.21587E-01 10848   0.863E-01    0.115E-01
DAV:   2    -0.627375430200E+03   -0.65152E-03   -0.60767E-03 12984   0.150E-01    0.654E-02
DAV:   3    -0.627375447662E+03   -0.17463E-04   -0.20230E-04  8472   0.303E-02
 107 F= -.62737545E+03 E0= -.62737545E+03  d E =0.250536E-02  mag=    20.0000
       N       E                     dE             d eps       ncg     rms          rms(c)
DAV:   1    -0.627373491012E+03    0.19392E-02   -0.24758E-01 10752   0.950E-01    0.223E-01
DAV:   2    -0.627373673555E+03   -0.18254E-03   -0.10468E-02 14172   0.301E-01    0.266E-01
DAV:   3    -0.627373652600E+03    0.20954E-04   -0.21083E-03 13332   0.954E-02    0.194E-01
DAV:   4    -0.627373503825E+03    0.14878E-03   -0.56308E-04 11172   0.557E-02    0.152E-01
DAV:   5    -0.627373450962E+03    0.52863E-04   -0.34561E-04 10404   0.696E-02
 108 F= -.62737345E+03 E0= -.62737345E+03  d E =0.199670E-02  mag=    20.0000
       N       E                     dE             d eps       ncg     rms          rms(c)
DAV:   1    -0.627377017375E+03   -0.35136E-02   -0.21296E+00 10752   0.275E+00    0.380E-01
DAV:   2    -0.627382441600E+03   -0.54242E-02   -0.61598E-02 13800   0.549E-01    0.337E-01
DAV:   3    -0.627382443399E+03   -0.17992E-05   -0.43716E-03 15420   0.148E-01    0.212E-01
DAV:   4    -0.627382216473E+03    0.22693E-03   -0.67034E-04 13080   0.753E-02    0.138E-01
DAV:   5    -0.627382052156E+03    0.16432E-03   -0.35471E-04 10704   0.911E-02    0.640E-02
DAV:   6    -0.627382100609E+03   -0.48453E-04   -0.78914E-04 13380   0.592E-02
 109 F= -.62738210E+03 E0= -.62738210E+03  d E =-.864965E-02  mag=    20.0000
       N       E                     dE             d eps       ncg     rms          rms(c)
DAV:   1    -0.627384780271E+03   -0.27281E-02   -0.84651E-01 10752   0.170E+00    0.251E-01
DAV:   2    -0.627386995737E+03   -0.22155E-02   -0.23763E-02 13380   0.304E-01    0.147E-01
DAV:   3    -0.627387082866E+03   -0.87129E-04   -0.13831E-03 15156   0.809E-02    0.942E-02
DAV:   4    -0.627387038812E+03    0.44054E-04   -0.98206E-05  6840   0.297E-02
 110 F= -.62738704E+03 E0= -.62738704E+03  d E =-.493820E-02  mag=    20.0000
       N       E                     dE             d eps       ncg     rms          rms(c)
DAV:   1    -0.627384841727E+03    0.22411E-02   -0.11592E-01 10752   0.641E-01    0.847E-02
DAV:   2    -0.627385168084E+03   -0.32636E-03   -0.34975E-03 13404   0.119E-01    0.530E-02
DAV:   3    -0.627385172019E+03   -0.39355E-05   -0.13296E-04  7200   0.284E-02
 111 F= -.62738517E+03 E0= -.62738517E+03  d E =0.186679E-02  mag=    20.0000
       N       E                     dE             d eps       ncg     rms          rms(c)
DAV:   1    -0.627337152250E+03    0.48016E-01   -0.11868E+01 10752   0.646E+00    0.842E-01
DAV:   2    -0.627366929262E+03   -0.29777E-01   -0.32808E-01 13332   0.113E+00    0.553E-01
DAV:   3    -0.627366838194E+03    0.91068E-04   -0.15564E-02 15444   0.270E-01    0.267E-01
DAV:   4    -0.627365987672E+03    0.85052E-03   -0.21622E-03 14928   0.132E-01    0.167E-01
DAV:   5    -0.627365837181E+03    0.15049E-03   -0.18113E-03 14412   0.101E-01    0.932E-02
DAV:   6    -0.627365851725E+03   -0.14544E-04   -0.28244E-04  8844   0.431E-02
[...]
DAV:   3    -0.627459142183E+03    0.21956E-04   -0.10190E-04  6288   0.289E-02
 143 F= -.62745914E+03 E0= -.62745914E+03  d E =-.298177E-03  mag=    20.0000
       N       E                     dE             d eps       ncg     rms          rms(c)
DAV:   1    -0.627459461407E+03   -0.29727E-03   -0.23114E-01 10752   0.932E-01    0.123E-01
DAV:   2    -0.627460165639E+03   -0.70423E-03   -0.65218E-03 13224   0.161E-01    0.706E-02
DAV:   3    -0.627460173741E+03   -0.81023E-05   -0.20705E-04  8112   0.330E-02
 144 F= -.62746017E+03 E0= -.62746017E+03  d E =-.103156E-02  mag=    20.0000
       N       E                     dE             d eps       ncg     rms          rms(c)
DAV:   1    -0.627460548098E+03   -0.38246E-03   -0.19857E-01 10752   0.870E-01    0.122E-01
DAV:   2    -0.627461067371E+03   -0.51927E-03   -0.54181E-03 13176   0.152E-01    0.765E-02
DAV:   3    -0.627461062041E+03    0.53308E-05   -0.18908E-04  8304   0.378E-02
 145 F= -.62746106E+03 E0= -.62746106E+03  d E =-.888299E-03  mag=    20.0000
       N       E                     dE             d eps       ncg     rms          rms(c)
DAV:   1    -0.627460863003E+03    0.20437E-03   -0.58438E-01 10752   0.149E+00    0.192E-01
DAV:   2    -0.627462526954E+03   -0.16640E-02   -0.15730E-02 12996   0.253E-01    0.114E-01
DAV:   3    -0.627462548929E+03   -0.21975E-04   -0.62469E-04 12420   0.510E-02
 146 F= -.62746255E+03 E0= -.62746255E+03  d E =-.148689E-02  mag=    20.0000
       N       E                     dE             d eps       ncg     rms          rms(c)
DAV:   1    -0.627462691851E+03   -0.16490E-03   -0.33290E-01 10752   0.113E+00    0.184E-01
DAV:   2    -0.627463565477E+03   -0.87363E-03   -0.94546E-03 13464   0.207E-01    0.134E-01
DAV:   3    -0.627463546406E+03    0.19070E-04   -0.54076E-04 11952   0.579E-02
 147 F= -.62746355E+03 E0= -.62746355E+03  d E =-.997478E-03  mag=    20.0000
       N       E                     dE             d eps       ncg     rms          rms(c)
DAV:   1    -0.627463498318E+03    0.67159E-04   -0.37414E-03 11088   0.124E-01    0.474E-02
DAV:   2    -0.627463501881E+03   -0.35632E-05   -0.44808E-04 10668   0.556E-02
 148 F= -.62746350E+03 E0= -.62746350E+03  d E =0.445253E-04  mag=    20.0000
       N       E                     dE             d eps       ncg     rms          rms(c)
DAV:   1    -0.627463621763E+03   -0.12345E-03   -0.73576E-03 10848   0.169E-01    0.374E-02
DAV:   2    -0.627463639029E+03   -0.17266E-04   -0.21612E-04  7128   0.355E-02
 149 F= -.62746364E+03 E0= -.62746364E+03  d E =-.137148E-03  mag=    20.0000
       N       E                     dE             d eps       ncg     rms          rms(c)
DAV:   1    -0.627463828194E+03   -0.20643E-03   -0.12039E-01 10752   0.676E-01    0.132E-01
DAV:   2    -0.627464208019E+03   -0.37982E-03   -0.36120E-03 13728   0.130E-01    0.900E-02
DAV:   3    -0.627464222642E+03   -0.14624E-04   -0.24044E-04  8424   0.395E-02
 150 F= -.62746422E+03 E0= -.62746422E+03  d E =-.583613E-03  mag=    20.0000
       N       E                     dE             d eps       ncg     rms          rms(c)
DAV:   1    -0.627464362198E+03   -0.15418E-03   -0.92474E-03 10944   0.192E-01    0.408E-02
DAV:   2    -0.627464370473E+03   -0.82750E-05   -0.39271E-04 10032   0.571E-02
 151 F= -.62746437E+03 E0= -.62746437E+03  d E =-.147831E-03  mag=    20.0000
       N       E                     dE             d eps       ncg     rms          rms(c)
DAV:   1    -0.627464573388E+03   -0.21119E-03   -0.39017E-02 10800   0.391E-01    0.622E-02
DAV:   2    -0.627464661958E+03   -0.88569E-04   -0.12823E-03 12984   0.782E-02    0.424E-02
DAV:   3    -0.627464654924E+03    0.70341E-05   -0.66293E-05  6180   0.222E-02
 152 F= -.62746465E+03 E0= -.62746465E+03  d E =-.284450E-03  mag=    20.0000
       N       E                     dE             d eps       ncg     rms          rms(c)
DAV:   1    -0.627464810825E+03   -0.14887E-03   -0.16093E-02 10800   0.252E-01    0.425E-02
DAV:   2    -0.627464839121E+03   -0.28296E-04   -0.45336E-04  8892   0.509E-02
 153 F= -.62746484E+03 E0= -.62746484E+03  d E =-.184197E-03  mag=    20.0000
       N       E                     dE             d eps       ncg     rms          rms(c)
DAV:   1    -0.627465032369E+03   -0.22154E-03   -0.44029E-02 10800   0.406E-01    0.114E-01
DAV:   2    -0.627465164507E+03   -0.13214E-03   -0.14061E-03 13140   0.856E-02    0.650E-02
DAV:   3    -0.627465177537E+03   -0.13031E-04   -0.12127E-04  6828   0.327E-02
 154 F= -.62746518E+03 E0= -.62746518E+03  d E =-.338416E-03  mag=    20.0000
       N       E                     dE             d eps       ncg     rms          rms(c)
DAV:   1    -0.627465328235E+03   -0.16373E-03   -0.44389E-02 10812   0.416E-01    0.580E-02
DAV:   2    -0.627465438232E+03   -0.11000E-03   -0.14882E-03 14220   0.951E-02    0.768E-02
DAV:   3    -0.627465428241E+03    0.99909E-05   -0.10819E-04  6588   0.272E-02
 155 F= -.62746543E+03 E0= -.62746543E+03  d E =-.250704E-03  mag=    20.0000
       N       E                     dE             d eps       ncg     rms          rms(c)
DAV:   1    -0.627465645613E+03   -0.20738E-03   -0.34861E-02 10800   0.371E-01    0.587E-02
DAV:   2    -0.627465719779E+03   -0.74165E-04   -0.12473E-03 13920   0.821E-02    0.516E-02
DAV:   3    -0.627465700015E+03    0.19764E-04   -0.72547E-05  6312   0.298E-02
 156 F= -.62746570E+03 E0= -.62746570E+03  d E =-.271773E-03  mag=    20.0000
       N       E                     dE             d eps       ncg     rms          rms(c)
DAV:   1    -0.627465880942E+03   -0.16116E-03   -0.98219E-02 10764   0.613E-01    0.142E-01
DAV:   2    -0.627466108552E+03   -0.22761E-03   -0.29048E-03 14184   0.126E-01    0.967E-02
DAV:   3    -0.627466118051E+03   -0.94991E-05   -0.22764E-04  7980   0.468E-02
 157 F= -.62746612E+03 E0= -.62746612E+03  d E =-.418037E-03  mag=    20.0000
       N       E                     dE             d eps       ncg     rms          rms(c)
DAV:   1    -0.627466296851E+03   -0.18830E-03   -0.23410E-02 10776   0.301E-01    0.410E-02
DAV:   2    -0.627466359674E+03   -0.62823E-04   -0.84777E-04 11508   0.657E-02
 158 F= -.62746636E+03 E0= -.62746636E+03  d E =-.241623E-03  mag=    20.0000
       N       E                     dE             d eps       ncg     rms          rms(c)
DAV:   1    -0.627466484409E+03   -0.18756E-03   -0.94754E-03 10800   0.192E-01    0.534E-02
DAV:   2    -0.627466490048E+03   -0.56397E-05   -0.29534E-04  7728   0.422E-02
 159 F= -.62746649E+03 E0= -.62746649E+03  d E =-.130374E-03  mag=    20.0000
       N       E                     dE             d eps       ncg     rms          rms(c)
DAV:   1    -0.627466485592E+03   -0.11831E-05   -0.15709E-01 10752   0.782E-01    0.150E-01
DAV:   2    -0.627466938240E+03   -0.45265E-03   -0.45892E-03 13032   0.145E-01    0.891E-02
DAV:   3    -0.627466952608E+03   -0.14368E-04   -0.19061E-04  8016   0.411E-02
 160 F= -.62746695E+03 E0= -.62746695E+03  d E =-.462560E-03  mag=    20.0000
       N       E                     dE             d eps       ncg     rms          rms(c)
DAV:   1    -0.627467140074E+03   -0.20183E-03   -0.15964E-02 10848   0.250E-01    0.523E-02
DAV:   2    -0.627467154635E+03   -0.14560E-04   -0.52430E-04  9528   0.548E-02
 161 F= -.62746715E+03 E0= -.62746715E+03  d E =-.202027E-03  mag=    20.0000
       N       E                     dE             d eps       ncg     rms          rms(c)
DAV:   1    -0.627467160098E+03   -0.20024E-04   -0.41759E-03 11424   0.137E-01    0.591E-02
DAV:   2    -0.627467122896E+03    0.37202E-04   -0.26310E-04  6828   0.422E-02
 162 F= -.62746712E+03 E0= -.62746712E+03  d E =0.317390E-04  mag=    20.0000
       N       E                     dE             d eps       ncg     rms          rms(c)
DAV:   1    -0.627467161757E+03   -0.16588E-05   -0.50708E-02 10752   0.439E-01    0.106E-01
DAV:   2    -0.627467352236E+03   -0.19048E-03   -0.14707E-03 13776   0.873E-02    0.661E-02
DAV:   3    -0.627467367623E+03   -0.15387E-04   -0.11738E-04  6624   0.270E-02
 163 F= -.62746737E+03 E0= -.62746737E+03  d E =-.244727E-03  mag=    20.0000
       N       E                     dE             d eps       ncg     rms          rms(c)
DAV:   1    -0.627467445150E+03   -0.92913E-04   -0.79707E-02 10764   0.554E-01    0.104E-01
DAV:   2    -0.627467642323E+03   -0.19717E-03   -0.27437E-03 14628   0.133E-01    0.103E-01
DAV:   3    -0.627467627186E+03    0.15137E-04   -0.20747E-04  7764   0.453E-02
 164 F= -.62746763E+03 E0= -.62746763E+03  d E =-.259562E-03  mag=    20.0000
       N       E                     dE             d eps       ncg     rms          rms(c)
DAV:   1    -0.627467789691E+03   -0.14737E-03   -0.44508E-02 10800   0.419E-01    0.106E-01
DAV:   2    -0.627467914918E+03   -0.12523E-03   -0.17313E-03 14580   0.939E-02    0.796E-02
DAV:   3    -0.627467903614E+03    0.11304E-04   -0.11807E-04  7224   0.361E-02
 165 F= -.62746790E+03 E0= -.62746790E+03  d E =-.276428E-03  mag=    20.0000
       N       E                     dE             d eps       ncg     rms          rms(c)
DAV:   1    -0.627468012889E+03   -0.97971E-04   -0.11876E-02 10776   0.214E-01    0.425E-02
DAV:   2    -0.627468039326E+03   -0.26437E-04   -0.29420E-04  7452   0.418E-02
 166 F= -.62746804E+03 E0= -.62746804E+03  d E =-.135712E-03  mag=    20.0000
       N       E                     dE             d eps       ncg     rms          rms(c)
DAV:   1    -0.627468150053E+03   -0.13716E-03   -0.20596E-02 10800   0.280E-01    0.591E-02
DAV:   2    -0.627468212630E+03   -0.62577E-04   -0.55308E-04 10884   0.524E-02
 167 F= -.62746821E+03 E0= -.62746821E+03  d E =-.173305E-03  mag=    20.0000
       N       E                     dE             d eps       ncg     rms          rms(c)
DAV:   1    -0.627468139266E+03    0.10788E-04   -0.41761E-03 10404   0.131E-01    0.317E-02
DAV:   2    -0.627468144757E+03   -0.54918E-05   -0.12098E-04  5928   0.289E-02
 168 F= -.62746814E+03 E0= -.62746814E+03  d E =0.678727E-04  mag=    20.0000
       N       E                     dE             d eps       ncg     rms          rms(c)
DAV:   1    -0.627468272202E+03   -0.13294E-03   -0.93391E-02 10752   0.608E-01    0.806E-02
DAV:   2    -0.627468490537E+03   -0.21834E-03   -0.29514E-03 14484   0.128E-01    0.725E-02
DAV:   3    -0.627468475813E+03    0.14724E-04   -0.11888E-04  6516   0.370E-02
 169 F= -.62746848E+03 E0= -.62746848E+03  d E =-.331056E-03  mag=    20.0000
       N       E                     dE             d eps       ncg     rms          rms(c)
DAV:   1    -0.627468555809E+03   -0.65272E-04   -0.33881E-02 10752   0.361E-01    0.728E-02
DAV:   2    -0.627468671453E+03   -0.11564E-03   -0.91296E-04 12276   0.656E-02    0.497E-02
DAV:   3    -0.627468677000E+03   -0.55469E-05   -0.48331E-05  5940   0.204E-02
 170 F= -.62746868E+03 E0= -.62746868E+03  d E =-.201187E-03  mag=    20.0000
       N       E                     dE             d eps       ncg     rms          rms(c)
DAV:   1    -0.627468803623E+03   -0.13217E-03   -0.56924E-02 10752   0.471E-01    0.740E-02
DAV:   2    -0.627468954440E+03   -0.15082E-03   -0.15915E-03 12612   0.837E-02    0.441E-02
DAV:   3    -0.627468955825E+03   -0.13852E-05   -0.76293E-05  5832   0.230E-02
 171 F= -.62746896E+03 E0= -.62746896E+03  d E =-.278825E-03  mag=    20.0000
       N       E                     dE             d eps       ncg     rms          rms(c)
DAV:   1    -0.627469060588E+03   -0.10615E-03   -0.34465E-02 10764   0.368E-01    0.410E-02
DAV:   2    -0.627469143523E+03   -0.82935E-04   -0.92050E-04 12228   0.696E-02
 172 F= -.62746914E+03 E0= -.62746914E+03  d E =-.187698E-03  mag=    20.0000
       N       E                     dE             d eps       ncg     rms          rms(c)
DAV:   1    -0.627469217853E+03   -0.15727E-03   -0.16069E-02 10788   0.246E-01    0.607E-02
DAV:   2    -0.627469268196E+03   -0.50342E-04   -0.41674E-04  9096   0.509E-02
 173 F= -.62746927E+03 E0= -.62746927E+03  d E =-.124673E-03  mag=    20.0000
       N       E                     dE             d eps       ncg     rms          rms(c)
DAV:   1    -0.627469325616E+03   -0.10776E-03   -0.17037E-02 10776   0.252E-01    0.665E-02
DAV:   2    -0.627469393211E+03   -0.67595E-04   -0.45938E-04  9228   0.506E-02
 174 F= -.62746939E+03 E0= -.62746939E+03  d E =-.125015E-03  mag=    20.0000
       N       E                     dE             d eps       ncg     rms          rms(c)
DAV:   1    -0.627469487621E+03   -0.16200E-03   -0.36745E-02 10764   0.379E-01    0.785E-02
DAV:   2    -0.627469580199E+03   -0.92578E-04   -0.11214E-03 12600   0.783E-02    0.526E-02
DAV:   3    -0.627469578112E+03    0.20866E-05   -0.61318E-05  5928   0.248E-02
 175 F= -.62746958E+03 E0= -.62746958E+03  d E =-.184902E-03  mag=    20.0000
       N       E                     dE             d eps       ncg     rms          rms(c)
DAV:   1    -0.627469577552E+03    0.26471E-05   -0.30045E-05  5880   0.137E-02    0.214E-02
DAV:   2    -0.627469577259E+03    0.29314E-06   -0.13085E-05  5772   0.106E-02
 176 F= -.62746958E+03 E0= -.62746958E+03  d E =0.853674E-06  mag=    20.0000
       N       E                     dE             d eps       ncg     rms          rms(c)
DAV:   1    -0.627469604955E+03   -0.27403E-04   -0.29433E-03 11148   0.114E-01    0.442E-02
DAV:   2    -0.627469575923E+03    0.29032E-04   -0.13096E-04  5748   0.352E-02
 177 F= -.62746958E+03 E0= -.62746958E+03  d E =0.133544E-05  mag=    20.0000
       N       E                     dE             d eps       ncg     rms          rms(c)
DAV:   1    -0.627469651984E+03   -0.47028E-04   -0.62147E-02 10752   0.497E-01    0.657E-02
DAV:   2    -0.627469797590E+03   -0.14561E-03   -0.20087E-03 14304   0.108E-01    0.667E-02
DAV:   3    -0.627469782420E+03    0.15171E-04   -0.79257E-05  6264   0.287E-02
 178 F= -.62746978E+03 E0= -.62746978E+03  d E =-.206496E-03  mag=    20.0000
       N       E                     dE             d eps       ncg     rms          rms(c)
DAV:   1    -0.627469715468E+03    0.82122E-04   -0.80534E-02 10752   0.559E-01    0.101E-01
DAV:   2    -0.627469964082E+03   -0.24861E-03   -0.30469E-03 14364   0.132E-01    0.122E-01
DAV:   3    -0.627469930933E+03    0.33149E-04   -0.24233E-04  8448   0.391E-02
 179 F= -.62746993E+03 E0= -.62746993E+03  d E =-.148513E-03  mag=    20.0000
       N       E                     dE             d eps       ncg     rms          rms(c)
DAV:   1    -0.627470020749E+03   -0.56667E-04   -0.14707E-02 10752   0.221E-01    0.564E-02
DAV:   2    -0.627470103779E+03   -0.83030E-04   -0.12871E-03 14172   0.814E-02    0.848E-02
DAV:   3    -0.627470064993E+03    0.38785E-04   -0.94034E-05  6384   0.274E-02
 180 F= -.62747006E+03 E0= -.62747006E+03  d E =-.134060E-03  mag=    20.0000
       N       E                     dE             d eps       ncg     rms          rms(c)
DAV:   1    -0.627470269148E+03   -0.16537E-03   -0.39883E-02 10776   0.405E-01    0.113E-01
DAV:   2    -0.627470224511E+03    0.44637E-04   -0.17230E-03 14808   0.925E-02    0.719E-02
DAV:   3    -0.627470194594E+03    0.29917E-04   -0.16425E-04  8352   0.456E-02
 181 F= -.62747019E+03 E0= -.62747019E+03  d E =-.129600E-03  mag=    20.0000
       N       E                     dE             d eps       ncg     rms          rms(c)
DAV:   1    -0.627470288850E+03   -0.64339E-04   -0.15870E-02 10752   0.244E-01    0.421E-02
DAV:   2    -0.627470320435E+03   -0.31585E-04   -0.70071E-04 12348   0.650E-02
 182 F= -.62747032E+03 E0= -.62747032E+03  d E =-.125841E-03  mag=    20.0000
       N       E                     dE             d eps       ncg     rms          rms(c)
DAV:   1    -0.627470440588E+03   -0.15174E-03   -0.11938E-02 10752   0.223E-01    0.907E-02
DAV:   2    -0.627470388539E+03    0.52049E-04   -0.71228E-04 12264   0.647E-02
 183 F= -.62747039E+03 E0= -.62747039E+03  d E =-.681043E-04  mag=    20.0000
       N       E                     dE             d eps       ncg     rms          rms(c)
DAV:   1    -0.627470243935E+03    0.19665E-03   -0.79880E-02 10752   0.547E-01    0.111E-01
DAV:   2    -0.627470554744E+03   -0.31081E-03   -0.35858E-03 13824   0.133E-01    0.133E-01
DAV:   3    -0.627470521178E+03    0.33567E-04   -0.23162E-04  8724   0.397E-02
 184 F= -.62747052E+03 E0= -.62747052E+03  d E =-.132638E-03  mag=    20.0000
       N       E                     dE             d eps       ncg     rms          rms(c)
DAV:   1    -0.627470598573E+03   -0.43829E-04   -0.24464E-02 10752   0.289E-01    0.699E-02
DAV:   2    -0.627470711349E+03   -0.11278E-03   -0.20545E-03 14652   0.944E-02    0.101E-01
DAV:   3    -0.627470657970E+03    0.53379E-04   -0.12644E-04  6876   0.314E-02
 185 F= -.62747066E+03 E0= -.62747066E+03  d E =-.136793E-03  mag=    20.0000
       N       E                     dE             d eps       ncg     rms          rms(c)
DAV:   1    -0.627470744935E+03   -0.33586E-04   -0.30671E-02 10752   0.351E-01    0.734E-02
DAV:   2    -0.627470798863E+03   -0.53928E-04   -0.13254E-03 13968   0.790E-02    0.525E-02
DAV:   3    -0.627470771141E+03    0.27722E-04   -0.92474E-05  7020   0.322E-02
 186 F= -.62747077E+03 E0= -.62747077E+03  d E =-.113171E-03  mag=    20.0000
       N       E                     dE             d eps       ncg     rms          rms(c)
DAV:   1    -0.627470823544E+03   -0.24681E-04   -0.18208E-02 10752   0.265E-01    0.523E-02
DAV:   2    -0.627470867682E+03   -0.44138E-04   -0.59989E-04 11220   0.597E-02
 187 F= -.62747087E+03 E0= -.62747087E+03  d E =-.965409E-04  mag=    20.0000
       N       E                     dE             d eps       ncg     rms          rms(c)
DAV:   1    -0.627470958887E+03   -0.13534E-03   -0.74457E-03 10968   0.175E-01    0.640E-02
DAV:   2    -0.627470932997E+03    0.25890E-04   -0.31599E-04  8556   0.467E-02
 188 F= -.62747093E+03 E0= -.62747093E+03  d E =-.653150E-04  mag=    20.0000
       N       E                     dE             d eps       ncg     rms          rms(c)
DAV:   1    -0.627470993676E+03   -0.34789E-04   -0.23260E-02 10776   0.305E-01    0.545E-02
DAV:   2    -0.627471026018E+03   -0.32343E-04   -0.75326E-04 11472   0.601E-02
 189 F= -.62747103E+03 E0= -.62747103E+03  d E =-.930217E-04  mag=    20.0000
       N       E                     dE             d eps       ncg     rms          rms(c)
DAV:   1    -0.627470948412E+03    0.45263E-04   -0.41998E-02 10752   0.384E-01    0.105E-01
DAV:   2    -0.627471065422E+03   -0.11701E-03   -0.23529E-03 14640   0.121E-01    0.135E-01
DAV:   3    -0.627471035699E+03    0.29723E-04   -0.28464E-04  9408   0.379E-02
 190 F= -.62747104E+03 E0= -.62747104E+03  d E =-.968053E-05  mag=    20.0000
       N       E                     dE             d eps       ncg     rms          rms(c)
DAV:   1    -0.627471152853E+03   -0.87432E-04   -0.90109E-03 10788   0.176E-01    0.718E-02
DAV:   2    -0.627471224110E+03   -0.71256E-04   -0.13917E-03 14292   0.820E-02    0.870E-02
DAV:   3    -0.627471165216E+03    0.58894E-04   -0.12790E-04  7212   0.334E-02
 191 F= -.62747117E+03 E0= -.62747117E+03  d E =-.129517E-03  mag=    20.0000
       N       E                     dE             d eps       ncg     rms          rms(c)
DAV:   1    -0.627471271045E+03   -0.46935E-04   -0.44089E-02 10752   0.423E-01    0.973E-02
DAV:   2    -0.627471258752E+03    0.12293E-04   -0.16544E-03 13608   0.984E-02    0.785E-02
DAV:   3    -0.627471238679E+03    0.20073E-04   -0.15155E-04  7716   0.389E-02
 192 F= -.62747124E+03 E0= -.62747124E+03  d E =-.734628E-04  mag=    20.0000
       N       E                     dE             d eps       ncg     rms          rms(c)
DAV:   1    -0.627471338382E+03   -0.79630E-04   -0.63850E-03 10776   0.155E-01    0.421E-02
DAV:   2    -0.627471344546E+03   -0.61640E-05   -0.35246E-04  8892   0.442E-02
 193 F= -.62747134E+03 E0= -.62747134E+03  d E =-.105867E-03  mag=    20.0000
