       N       E                     dE             d eps       ncg     rms          rms(c)
DAV:   1     0.551066543818E+04    0.55107E+04   -0.19753E+05 21504   0.125E+03
DAV:   2     0.487687716084E+03   -0.50230E+04   -0.46250E+04 22248   0.349E+02
DAV:   3    -0.724019570621E+03   -0.12117E+04   -0.11735E+04 25332   0.178E+02
DAV:   4    -0.825633717072E+03   -0.10161E+03   -0.10020E+03 32160   0.588E+01
DAV:   5    -0.829356808446E+03   -0.37231E+01   -0.36800E+01 33972   0.127E+01
DAV:   6    -0.829518769127E+03   -0.16196E+00   -0.16082E+00 34056   0.235E+00
DAV:   7    -0.829526933088E+03   -0.81640E-02   -0.81357E-02 34116   0.531E-01
DAV:   8    -0.829527461681E+03   -0.52859E-03   -0.52767E-03 27948   0.118E-01
DAV:   9    -0.829527499160E+03   -0.37479E-04   -0.37421E-04 19908   0.361E-02
DAV:  10    -0.829527503292E+03   -0.41319E-05   -0.41170E-05 17748   0.168E-02
DAV:  11    -0.829527504842E+03   -0.15505E-05   -0.15441E-05 16560   0.116E-02
DAV:  12    -0.829527505735E+03   -0.89277E-06   -0.88970E-06 15996   0.870E-03    0.114E+02
DAV:  13    -0.615977855996E+03    0.21355E+03   -0.12726E+03 32184   0.825E+01    0.837E+01
DAV:  14    -0.678186001320E+03   -0.62208E+02   -0.58379E+02 36084   0.948E+01    0.107E+02
DAV:  15    -0.639962619931E+03    0.38223E+02   -0.46551E+02 33384   0.664E+01    0.671E+01
DAV:  16    -0.627342956665E+03    0.12620E+02   -0.21370E+02 33552   0.670E+01    0.908E+01
DAV:  17    -0.623328817600E+03    0.40141E+01   -0.32531E+02 36240   0.509E+01    0.542E+01
DAV:  18    -0.611577440008E+03    0.11751E+02   -0.41766E+01 32196   0.202E+01    0.391E+01
DAV:  19    -0.613240411318E+03   -0.16630E+01   -0.11745E+01 31668   0.788E+00    0.323E+01
DAV:  20    -0.621822491089E+03   -0.85821E+01   -0.31471E+01 34932   0.211E+01    0.322E+01
DAV:  21    -0.616331239653E+03    0.54913E+01   -0.74895E+00 32424   0.105E+01    0.262E+01
DAV:  22    -0.617979974433E+03   -0.16487E+01   -0.18231E+00 31452   0.370E+00    0.277E+01
DAV:  23    -0.619300778575E+03   -0.13208E+01   -0.40018E-01 34440   0.262E+00    0.271E+01
DAV:  24    -0.620092674930E+03   -0.79190E+00   -0.48341E+00 36744   0.663E+00    0.285E+01
DAV:  25    -0.620827882104E+03   -0.73521E+00   -0.16142E+00 31488   0.509E+00    0.253E+01
DAV:  26    -0.622090430246E+03   -0.12625E+01   -0.35574E-01 31788   0.246E+00    0.245E+01
DAV:  27    -0.626396498066E+03   -0.43061E+01   -0.30735E+00 34800   0.911E+00    0.239E+01
DAV:  28    -0.626232126248E+03    0.16437E+00   -0.15419E+01 32748   0.101E+01    0.219E+01
DAV:  29    -0.626554222609E+03   -0.32210E+00   -0.13437E+00 31608   0.581E+00    0.187E+01
DAV:  30    -0.625826636879E+03    0.72759E+00   -0.38186E+00 36204   0.782E+00    0.155E+01
DAV:  31    -0.626103306520E+03   -0.27667E+00   -0.50266E+00 32748   0.641E+00    0.142E+01
DAV:  32    -0.626116669173E+03   -0.13363E-01   -0.23406E+00 32148   0.446E+00    0.168E+01
DAV:  33    -0.626401737205E+03   -0.28507E+00   -0.10495E+00 33120   0.252E+00    0.155E+01
DAV:  34    -0.626508907716E+03   -0.10717E+00   -0.12203E+00 32496   0.260E+00    0.160E+01
DAV:  35    -0.626491955653E+03    0.16952E-01   -0.75420E-02 26124   0.605E-01    0.160E+01
DAV:  36    -0.626454928955E+03    0.37027E-01   -0.59373E-03 33816   0.242E-01    0.160E+01
DAV:  37    -0.626806138364E+03   -0.35121E+00   -0.87733E-02 36444   0.154E+00    0.156E+01
DAV:  38    -0.627160355381E+03   -0.35422E+00   -0.13031E-01 33228   0.187E+00    0.156E+01
DAV:  39    -0.627278882621E+03   -0.11853E+00   -0.56367E-02 32580   0.925E-01    0.157E+01
DAV:  40    -0.627115675514E+03    0.16321E+00   -0.36405E-02 33420   0.111E+00    0.156E+01
DAV:  41    -0.626788695669E+03    0.32698E+00   -0.66707E-02 35052   0.183E+00    0.155E+01
DAV:  42    -0.627749933380E+03   -0.96124E+00   -0.31787E-01 33816   0.501E+00    0.150E+01
DAV:  43    -0.628056782153E+03   -0.30685E+00   -0.56083E-01 35976   0.365E+00    0.138E+01
DAV:  44    -0.628658750147E+03   -0.60197E+00   -0.33685E-01 33636   0.288E+00    0.127E+01
DAV:  45    -0.629239348537E+03   -0.58060E+00   -0.22016E-01 34452   0.293E+00    0.123E+01
DAV:  46    -0.629010197364E+03    0.22915E+00   -0.27175E-01 32388   0.206E+00    0.111E+01
DAV:  47    -0.628860927352E+03    0.14927E+00   -0.81451E-02 33588   0.114E+00    0.106E+01
DAV:  48    -0.628689318221E+03    0.17161E+00   -0.71106E-02 35184   0.156E+00    0.997E+00
DAV:  49    -0.627532723244E+03    0.11566E+01   -0.62262E-01 35532   0.715E+00    0.802E+00
DAV:  50    -0.627145297111E+03    0.38743E+00   -0.76683E-01 33192   0.287E+00    0.725E+00
DAV:  51    -0.627126111479E+03    0.19186E-01   -0.17489E-01 31284   0.128E+00    0.711E+00
DAV:  52    -0.626804621102E+03    0.32149E+00   -0.95672E-02 33732   0.245E+00    0.649E+00
DAV:  53    -0.626485815956E+03    0.31881E+00   -0.20730E-01 34128   0.288E+00    0.559E+00
DAV:  54    -0.626304405845E+03    0.18141E+00   -0.15449E-01 34164   0.214E+00    0.487E+00
DAV:  55    -0.626253864308E+03    0.50542E-01   -0.99222E-02 32868   0.995E-01    0.451E+00
DAV:  56    -0.626217874878E+03    0.35989E-01   -0.18269E-02 31680   0.496E-01    0.428E+00
DAV:  57    -0.626166078450E+03    0.51796E-01   -0.79837E-01 34188   0.612E+00    0.930E+00
DAV:  58    -0.626000944735E+03    0.16513E+00   -0.73826E-01 34632   0.304E+00    0.303E+00
DAV:  59    -0.625980697966E+03    0.20247E-01   -0.11293E-01 33084   0.176E+00    0.278E+00
DAV:  60    -0.625948788439E+03    0.31910E-01   -0.64094E-02 34332   0.127E+00    0.248E+00
DAV:  61    -0.625929242612E+03    0.19546E-01   -0.30967E-02 33840   0.849E-01    0.219E+00
DAV:  62    -0.625924238303E+03    0.50043E-02   -0.23994E-02 32268   0.515E-01    0.205E+00
DAV:  63    -0.625908091330E+03    0.16147E-01   -0.73513E-02 36984   0.253E+00    0.149E+00
DAV:  64    -0.625908892229E+03   -0.80090E-03   -0.68926E-02 33888   0.884E-01    0.133E+00
DAV:  65    -0.625906883632E+03    0.20086E-02   -0.37370E-02 33240   0.780E-01    0.144E+00
DAV:  66    -0.625911572265E+03   -0.46886E-02   -0.14332E-02 33204   0.556E-01    0.151E+00
DAV:  67    -0.625917158908E+03   -0.55866E-02   -0.59641E-03 34908   0.493E-01    0.141E+00
DAV:  68    -0.625918644466E+03   -0.14856E-02   -0.93551E-03 30996   0.256E-01    0.139E+00
DAV:  69    -0.625921735110E+03   -0.30906E-02   -0.14859E-03 31248   0.174E-01    0.137E+00
DAV:  70    -0.625924631562E+03   -0.28965E-02   -0.12719E-03 31248   0.211E-01    0.137E+00
DAV:  71    -0.625927709193E+03   -0.30776E-02   -0.10822E-03 31740   0.187E-01    0.136E+00
DAV:  72    -0.625929032589E+03   -0.13234E-02   -0.11611E-03 30744   0.864E-02    0.134E+00
DAV:  73    -0.625929737895E+03   -0.70531E-03   -0.13745E-04 17196   0.108E-01    0.127E+00
DAV:  74    -0.625928168349E+03    0.15695E-02   -0.55193E-04 23340   0.127E-01    0.124E+00
DAV:  75    -0.625927257420E+03    0.91093E-03   -0.69841E-04 27744   0.791E-02    0.123E+00
DAV:  76    -0.625926400809E+03    0.85661E-03   -0.92398E-05 14892   0.645E-02    0.120E+00
DAV:  77    -0.625925053797E+03    0.13470E-02   -0.30571E-04 20484   0.877E-02    0.116E+00
DAV:  78    -0.625925698072E+03   -0.64427E-03   -0.73800E-04 26676   0.115E-01    0.113E+00
DAV:  79    -0.625925694742E+03    0.33301E-05   -0.91089E-05 14640   0.499E-02
   1 F= -.62592569E+03 E0= -.62592410E+03  d E =-.625926E+03  mag=    19.7562
       N       E                     dE             d eps       ncg     rms          rms(c)
DAV:   1    -0.627213163905E+03   -0.12875E+01   -0.72588E+02 21504   0.534E+01    0.153E+01
DAV:   2    -0.627477810254E+03   -0.26465E+00   -0.50261E+01 32112   0.237E+01    0.175E+01
DAV:   3    -0.627215447505E+03    0.26236E+00   -0.97626E+00 29532   0.683E+00    0.113E+01
DAV:   4    -0.626589668570E+03    0.62578E+00   -0.23486E+00 32832   0.389E+00    0.834E+00
DAV:   5    -0.626522212127E+03    0.67456E-01   -0.13725E+00 28068   0.291E+00    0.407E+00
DAV:   6    -0.626426331996E+03    0.95880E-01   -0.61325E-01 32328   0.257E+00    0.218E+00
DAV:   7    -0.626414780904E+03    0.11551E-01   -0.55515E-01 30072   0.179E+00    0.169E+00
DAV:   8    -0.626418075185E+03   -0.32943E-02   -0.59315E-02 30324   0.919E-01    0.698E-01
DAV:   9    -0.626418951049E+03   -0.87586E-03   -0.24647E-02 31824   0.365E-01    0.560E-01
DAV:  10    -0.626417625163E+03    0.13259E-02   -0.52937E-03 30312   0.211E-01    0.338E-01
DAV:  11    -0.626416547853E+03    0.10773E-02   -0.85738E-03 31644   0.194E-01    0.142E-01
DAV:  12    -0.626416614860E+03   -0.67007E-04   -0.13744E-03 28428   0.866E-02    0.932E-02
DAV:  13    -0.626416632284E+03   -0.17424E-04   -0.21710E-04 14868   0.445E-02
   2 F= -.62641663E+03 E0= -.62641663E+03  d E =-.490938E+00  mag=    19.8523
       N       E                     dE             d eps       ncg     rms          rms(c)
DAV:   1    -0.628913481743E+03   -0.24969E+01   -0.11424E+02 21744   0.221E+01    0.980E+00
DAV:   2    -0.628188070984E+03    0.72541E+00   -0.10882E+01 30276   0.103E+01    0.114E+01
DAV:   3    -0.627984086016E+03    0.20398E+00   -0.26937E+00 30792   0.363E+00    0.686E+00
DAV:   4    -0.627922092207E+03    0.61994E-01   -0.83514E-01 31992   0.227E+00    0.546E+00
DAV:   5    -0.627868373600E+03    0.53719E-01   -0.21656E-01 30468   0.167E+00    0.248E+00
DAV:   6    -0.627848451452E+03    0.19922E-01   -0.23542E-01 31788   0.114E+00    0.913E-01
DAV:   7    -0.627847922753E+03    0.52870E-03   -0.58840E-02 31272   0.667E-01    0.670E-01
DAV:   8    -0.627846646418E+03    0.12763E-02   -0.69312E-03 31872   0.383E-01    0.256E-01
DAV:   9    -0.627846488415E+03    0.15800E-03   -0.55641E-03 31260   0.198E-01    0.142E-01
DAV:  10    -0.627846518956E+03   -0.30541E-04   -0.20232E-03 30036   0.979E-02    0.927E-02
DAV:  11    -0.627846474836E+03    0.44120E-04   -0.49437E-04 22332   0.623E-02
   3 F= -.62784647E+03 E0= -.62784647E+03  d E =-.142984E+01  mag=    19.9020
       N       E                     dE             d eps       ncg     rms          rms(c)
DAV:   1    -0.627709998149E+03    0.13652E+00   -0.69559E+01 21504   0.161E+01    0.386E+00
DAV:   2    -0.627934839317E+03   -0.22484E+00   -0.37116E+00 29460   0.482E+00    0.522E+00
DAV:   3    -0.627908029566E+03    0.26810E-01   -0.42008E-01 28836   0.145E+00    0.378E+00
DAV:   4    -0.627866549957E+03    0.41480E-01   -0.15773E-01 28572   0.809E-01    0.299E+00
DAV:   5    -0.627859384346E+03    0.71656E-02   -0.20430E-01 27600   0.921E-01    0.147E+00
DAV:   6    -0.627846709268E+03    0.12675E-01   -0.94616E-02 32388   0.779E-01    0.103E+00
DAV:   7    -0.627841594865E+03    0.51144E-02   -0.75311E-02 27864   0.540E-01    0.532E-01
DAV:   8    -0.627842131155E+03   -0.53629E-03   -0.76066E-03 28248   0.229E-01    0.276E-01
DAV:   9    -0.627842110587E+03    0.20568E-04   -0.24259E-03 31560   0.117E-01    0.188E-01
DAV:  10    -0.627841896146E+03    0.21444E-03   -0.79006E-04 26136   0.695E-02    0.120E-01
DAV:  11    -0.627841837083E+03    0.59062E-04   -0.36648E-04 17664   0.429E-02
   4 F= -.62784184E+03 E0= -.62784184E+03  d E =0.463775E-02  mag=    19.9354
       N       E                     dE             d eps       ncg     rms          rms(c)
DAV:   1    -0.628032993284E+03   -0.19110E+00   -0.10657E+01 21504   0.611E+00    0.185E+00
DAV:   2    -0.628061750015E+03   -0.28757E-01   -0.74533E-01 28860   0.212E+00    0.272E+00
DAV:   3    -0.628059757177E+03    0.19928E-02   -0.80508E-02 26184   0.573E-01    0.237E+00
DAV:   4    -0.628047322672E+03    0.12435E-01   -0.32566E-02 29868   0.377E-01    0.211E+00
DAV:   5    -0.628047569761E+03   -0.24709E-03   -0.10267E-01 26940   0.601E-01    0.141E+00
DAV:   6    -0.628044103405E+03    0.34664E-02   -0.37271E-02 31992   0.501E-01    0.120E+00
DAV:   7    -0.628039328185E+03    0.47752E-02   -0.22062E-02 30024   0.317E-01    0.800E-01
DAV:   8    -0.628038954972E+03    0.37321E-03   -0.37635E-03 29892   0.139E-01    0.609E-01
DAV:   9    -0.628037962739E+03    0.99223E-03   -0.10682E-03 29028   0.720E-02    0.488E-01
DAV:  10    -0.628037206952E+03    0.75579E-03   -0.12695E-03 29568   0.759E-02    0.287E-01
DAV:  11    -0.628036804419E+03    0.40253E-03   -0.11014E-03 24780   0.604E-02    0.142E-01
DAV:  12    -0.628036726956E+03    0.77463E-04   -0.15272E-04 14304   0.304E-02
   5 F= -.62803673E+03 E0= -.62803673E+03  d E =-.194890E+00  mag=    19.9585
       N       E                     dE             d eps       ncg     rms          rms(c)
DAV:   1    -0.628052756334E+03   -0.15952E-01   -0.17034E+01 21504   0.820E+00    0.125E+00
DAV:   2    -0.628098232069E+03   -0.45476E-01   -0.54657E-01 30072   0.196E+00    0.134E+00
DAV:   3    -0.628098877221E+03   -0.64515E-03   -0.59905E-02 30444   0.569E-01    0.704E-01
DAV:   4    -0.628096797382E+03    0.20798E-02   -0.77972E-03 32448   0.229E-01    0.532E-01
DAV:   5    -0.628095170975E+03    0.16264E-02   -0.49249E-03 27756   0.211E-01    0.261E-01
DAV:   6    -0.628095097945E+03    0.73030E-04   -0.46649E-03 30480   0.174E-01    0.122E-01
DAV:   7    -0.628095153154E+03   -0.55209E-04   -0.17557E-03 26112   0.874E-02    0.732E-02
DAV:   8    -0.628095138560E+03    0.14593E-04   -0.15109E-04 12912   0.364E-02
   6 F= -.62809514E+03 E0= -.62809514E+03  d E =-.584116E-01  mag=    19.9693
       N       E                     dE             d eps       ncg     rms          rms(c)
DAV:   1    -0.628073618225E+03    0.21535E-01   -0.42329E+00 21504   0.373E+00    0.119E+00
DAV:   2    -0.628083977311E+03   -0.10359E-01   -0.30540E-01 29172   0.140E+00    0.171E+00
DAV:   3    -0.628080826212E+03    0.31511E-02   -0.38125E-02 26484   0.404E-01    0.139E+00
DAV:   4    -0.628075559987E+03    0.52662E-02   -0.21886E-02 29712   0.291E-01    0.114E+00
DAV:   5    -0.628074965337E+03    0.59465E-03   -0.25409E-02 27900   0.328E-01    0.635E-01
DAV:   6    -0.628073485178E+03    0.14802E-02   -0.94821E-03 31728   0.267E-01    0.478E-01
DAV:   7    -0.628072693804E+03    0.79137E-03   -0.63145E-03 27336   0.157E-01    0.287E-01
DAV:   8    -0.628072663076E+03    0.30727E-04   -0.96181E-04 29004   0.827E-02
   7 F= -.62807266E+03 E0= -.62807266E+03  d E =0.224755E-01  mag=    19.9770
       N       E                     dE             d eps       ncg     rms          rms(c)
DAV:   1    -0.628090032761E+03   -0.17339E-01   -0.15764E+01 21504   0.773E+00    0.164E+00
DAV:   2    -0.628135012327E+03   -0.44980E-01   -0.67943E-01 28068   0.195E+00    0.197E+00
DAV:   3    -0.628130494293E+03    0.45180E-02   -0.69732E-02 29400   0.594E-01    0.135E+00
DAV:   4    -0.628123640149E+03    0.68541E-02   -0.43886E-02 31404   0.446E-01    0.103E+00
DAV:   5    -0.628122751860E+03    0.88829E-03   -0.22493E-02 27420   0.361E-01    0.522E-01
DAV:   6    -0.628120572657E+03    0.21792E-02   -0.12104E-02 31692   0.274E-01    0.311E-01
DAV:   7    -0.628120260911E+03    0.31175E-03   -0.10288E-02 27324   0.198E-01    0.142E-01
DAV:   8    -0.628120250916E+03    0.99954E-05   -0.10879E-03 27996   0.929E-02    0.562E-02
DAV:   9    -0.628120237010E+03    0.13906E-04   -0.28303E-04 17148   0.380E-02
   8 F= -.62812024E+03 E0= -.62812024E+03  d E =-.475739E-01  mag=    19.9839
       N       E                     dE             d eps       ncg     rms          rms(c)
DAV:   1    -0.628146687486E+03   -0.26437E-01   -0.34095E+00 21504   0.367E+00    0.733E-01
DAV:   2    -0.628152237200E+03   -0.55497E-02   -0.14965E-01 30696   0.989E-01    0.903E-01
DAV:   3    -0.628151110623E+03    0.11266E-02   -0.14737E-02 29760   0.293E-01    0.609E-01
DAV:   4    -0.628149735918E+03    0.13747E-02   -0.55079E-03 31776   0.160E-01    0.481E-01
DAV:   5    -0.628149192501E+03    0.54342E-03   -0.26459E-03 28428   0.132E-01    0.244E-01
DAV:   6    -0.628148960016E+03    0.23249E-03   -0.23249E-03 32628   0.126E-01    0.104E-01
DAV:   7    -0.628148979630E+03   -0.19614E-04   -0.94597E-04 26760   0.678E-02
   9 F= -.62814898E+03 E0= -.62814898E+03  d E =-.287426E-01  mag=    19.9875
       N       E                     dE             d eps       ncg     rms          rms(c)
DAV:   1    -0.628152333071E+03   -0.33731E-02   -0.11315E-01 21960   0.670E-01    0.138E-01
DAV:   2    -0.628152506619E+03   -0.17355E-03   -0.40387E-03 29580   0.147E-01    0.978E-02
DAV:   3    -0.628152492488E+03    0.14131E-04   -0.47101E-04 23016   0.565E-02
  10 F= -.62815249E+03 E0= -.62815249E+03  d E =-.351286E-02  mag=    19.9887
       N       E                     dE             d eps       ncg     rms          rms(c)
DAV:   1    -0.628123455848E+03    0.29051E-01   -0.27398E+01 21504   0.104E+01    0.129E+00
DAV:   2    -0.628194743169E+03   -0.71287E-01   -0.76329E-01 26724   0.189E+00    0.954E-01
DAV:   3    -0.628194558219E+03    0.18495E-03   -0.31908E-02 30300   0.434E-01    0.573E-01
DAV:   4    -0.628192603487E+03    0.19547E-02   -0.47682E-03 32088   0.189E-01    0.339E-01
DAV:   5    -0.628191081190E+03    0.15223E-02   -0.34155E-03 30348   0.181E-01    0.144E-01
DAV:   6    -0.628191200781E+03   -0.11959E-03   -0.27544E-03 30456   0.125E-01    0.122E-01
DAV:   7    -0.628191188949E+03    0.11832E-04   -0.33301E-04 18252   0.425E-02
  11 F= -.62819119E+03 E0= -.62819119E+03  d E =-.386965E-01  mag=    19.9912
       N       E                     dE             d eps       ncg     rms          rms(c)
DAV:   1    -0.628182419035E+03    0.87817E-02   -0.12570E+01 21504   0.704E+00    0.933E-01
DAV:   2    -0.628215840536E+03   -0.33422E-01   -0.37415E-01 26604   0.131E+00    0.764E-01
DAV:   3    -0.628215355071E+03    0.48546E-03   -0.19137E-02 29856   0.322E-01    0.434E-01
DAV:   4    -0.628214117959E+03    0.12371E-02   -0.50150E-03 31440   0.194E-01    0.304E-01
DAV:   5    -0.628213844940E+03    0.27302E-03   -0.32523E-03 31320   0.146E-01    0.149E-01
DAV:   6    -0.628213822876E+03    0.22064E-04   -0.92275E-04 28344   0.861E-02
  12 F= -.62821382E+03 E0= -.62821382E+03  d E =-.226339E-01  mag=    19.9930
       N       E                     dE             d eps       ncg     rms          rms(c)
DAV:   1    -0.628210949175E+03    0.28958E-02   -0.56791E+00 21504   0.474E+00    0.647E-01
DAV:   2    -0.628224447024E+03   -0.13498E-01   -0.16836E-01 27636   0.911E-01    0.567E-01
DAV:   3    -0.628224247621E+03    0.19940E-03   -0.11552E-02 29340   0.265E-01    0.273E-01
DAV:   4    -0.628223793624E+03    0.45400E-03   -0.19136E-03 31284   0.118E-01    0.192E-01
DAV:   5    -0.628223675811E+03    0.11781E-03   -0.12105E-03 29220   0.884E-02    0.994E-02
DAV:   6    -0.628223648837E+03    0.26973E-04   -0.32049E-04 18948   0.520E-02
  13 F= -.62822365E+03 E0= -.62822365E+03  d E =-.982596E-02  mag=    19.9944
       N       E                     dE             d eps       ncg     rms          rms(c)
DAV:   1    -0.628219665312E+03    0.40105E-02   -0.90155E-01 21540   0.189E+00    0.272E-01
DAV:   2    -0.628221731694E+03   -0.20664E-02   -0.28500E-02 28152   0.381E-01    0.264E-01
DAV:   3    -0.628221533578E+03    0.19812E-03   -0.17772E-03 29520   0.108E-01    0.145E-01
DAV:   4    -0.628221421300E+03    0.11228E-03   -0.39572E-04 20388   0.474E-02    0.998E-02
DAV:   5    -0.628221377446E+03    0.43854E-04   -0.15116E-04 13572   0.367E-02
  14 F= -.62822138E+03 E0= -.62822138E+03  d E =0.227139E-02  mag=    19.9954
       N       E                     dE             d eps       ncg     rms          rms(c)
DAV:   1    -0.628223030596E+03   -0.16093E-02   -0.55682E-01 21528   0.148E+00    0.241E-01
DAV:   2    -0.628224312567E+03   -0.12820E-02   -0.16929E-02 27744   0.301E-01    0.212E-01
DAV:   3    -0.628224288469E+03    0.24098E-04   -0.13207E-03 30060   0.877E-02    0.115E-01
DAV:   4    -0.628224211605E+03    0.76863E-04   -0.18428E-04 16596   0.403E-02
  15 F= -.62822421E+03 E0= -.62822421E+03  d E =-.283416E-02  mag=    19.9961
       N       E                     dE             d eps       ncg     rms          rms(c)
DAV:   1    -0.628225529645E+03   -0.12412E-02   -0.59749E-01 21540   0.153E+00    0.228E-01
DAV:   2    -0.628227212650E+03   -0.16830E-02   -0.22192E-02 28272   0.363E-01    0.317E-01
DAV:   3    -0.628227047655E+03    0.16499E-03   -0.15606E-03 27432   0.952E-02    0.216E-01
DAV:   4    -0.628226895438E+03    0.15222E-03   -0.55471E-04 22584   0.536E-02    0.178E-01
DAV:   5    -0.628226839574E+03    0.55864E-04   -0.31406E-04 20580   0.592E-02
  16 F= -.62822684E+03 E0= -.62822684E+03  d E =-.262797E-02  mag=    19.9968
       N       E                     dE             d eps       ncg     rms          rms(c)
DAV:   1    -0.628228467534E+03   -0.15721E-02   -0.10938E-01 21792   0.655E-01    0.166E-01
DAV:   2    -0.628228561911E+03   -0.94377E-04   -0.55021E-03 29568   0.198E-01    0.196E-01
DAV:   3    -0.628228467984E+03    0.93926E-04   -0.73544E-04 24732   0.665E-02
  17 F= -.62822847E+03 E0= -.62822847E+03  d E =-.162841E-02  mag=    19.9971
       N       E                     dE             d eps       ncg     rms          rms(c)
DAV:   1    -0.628229766805E+03   -0.12049E-02   -0.85439E-01 21504   0.183E+00    0.264E-01
DAV:   2    -0.628231962696E+03   -0.21959E-02   -0.26618E-02 28200   0.370E-01    0.234E-01
DAV:   3    -0.628231835538E+03    0.12716E-03   -0.16383E-03 28368   0.110E-01    0.991E-02
DAV:   4    -0.628231767084E+03    0.68454E-04   -0.13744E-04 13512   0.406E-02
  18 F= -.62823177E+03 E0= -.62823177E+03  d E =-.329910E-02  mag=    19.9975
       N       E                     dE             d eps       ncg     rms          rms(c)
DAV:   1    -0.628230481363E+03    0.13542E-02   -0.84517E-02 21696   0.579E-01    0.778E-02
DAV:   2    -0.628230724770E+03   -0.24341E-03   -0.26943E-03 26088   0.115E-01    0.603E-02
DAV:   3    -0.628230719031E+03    0.57399E-05   -0.89612E-05 12540   0.276E-02
  19 F= -.62823072E+03 E0= -.62823072E+03  d E =0.104805E-02  mag=    19.9977
       N       E                     dE             d eps       ncg     rms          rms(c)
DAV:   1    -0.628232184255E+03   -0.14595E-02   -0.19970E-01 21588   0.905E-01    0.238E-01
DAV:   2    -0.628232136944E+03    0.47312E-04   -0.83511E-03 31428   0.234E-01    0.206E-01
DAV:   3    -0.628232053701E+03    0.83243E-04   -0.90316E-04 27588   0.887E-02
  20 F= -.62823205E+03 E0= -.62823205E+03  d E =-.133467E-02  mag=    19.9979
       N       E                     dE             d eps       ncg     rms          rms(c)
DAV:   1    -0.628232792189E+03   -0.65524E-03   -0.77997E-02 21624   0.551E-01    0.101E-01
DAV:   2    -0.628233024426E+03   -0.23224E-03   -0.29749E-03 30288   0.125E-01    0.113E-01
DAV:   3    -0.628232992308E+03    0.32118E-04   -0.13040E-04 13476   0.366E-02
  21 F= -.62823299E+03 E0= -.62823299E+03  d E =-.938607E-03  mag=    19.9980
       N       E                     dE             d eps       ncg     rms          rms(c)
DAV:   1    -0.628234103952E+03   -0.10795E-02   -0.78302E-01 21504   0.176E+00    0.254E-01
DAV:   2    -0.628236021307E+03   -0.19174E-02   -0.21982E-02 25884   0.325E-01    0.178E-01
DAV:   3    -0.628235992610E+03    0.28697E-04   -0.11795E-03 28284   0.906E-02    0.105E-01
DAV:   4    -0.628235939898E+03    0.52712E-04   -0.96826E-05 13044   0.313E-02
  22 F= -.62823594E+03 E0= -.62823594E+03  d E =-.294759E-02  mag=    19.9983
       N       E                     dE             d eps       ncg     rms          rms(c)
DAV:   1    -0.628235079901E+03    0.91271E-03   -0.47915E-02 21672   0.436E-01    0.632E-02
DAV:   2    -0.628235229913E+03   -0.15001E-03   -0.17490E-03 26772   0.968E-02    0.664E-02
DAV:   3    -0.628235222012E+03    0.79009E-05   -0.70563E-05 12480   0.266E-02
  23 F= -.62823522E+03 E0= -.62823522E+03  d E =0.717886E-03  mag=    19.9984
       N       E                     dE             d eps       ncg     rms          rms(c)
DAV:   1    -0.628235838701E+03   -0.60879E-03   -0.25052E-01 21528   0.985E-01    0.274E-01
DAV:   2    -0.628235737789E+03    0.10091E-03   -0.10997E-02 28740   0.255E-01    0.224E-01
DAV:   3    -0.628235660148E+03    0.77641E-04   -0.14100E-03 30228   0.103E-01    0.145E-01
DAV:   4    -0.628235584779E+03    0.75369E-04   -0.44351E-04 22704   0.479E-02
  24 F= -.62823558E+03 E0= -.62823558E+03  d E =-.362767E-03  mag=    19.9986
       N       E                     dE             d eps       ncg     rms          rms(c)
DAV:   1    -0.628235094424E+03    0.56572E-03   -0.17132E-01 21528   0.807E-01    0.176E-01
DAV:   2    -0.628235440222E+03   -0.34580E-03   -0.69745E-03 27348   0.204E-01    0.178E-01
DAV:   3    -0.628235415865E+03    0.24357E-04   -0.63220E-04 24168   0.694E-02
  25 F= -.62823542E+03 E0= -.62823542E+03  d E =0.168914E-03  mag=    19.9987
       N       E                     dE             d eps       ncg     rms          rms(c)
DAV:   1    -0.628236527144E+03   -0.10869E-02   -0.56412E-01 21504   0.150E+00    0.247E-01
DAV:   2    -0.628237817669E+03   -0.12905E-02   -0.17964E-02 27660   0.303E-01    0.183E-01
DAV:   3    -0.628237739038E+03    0.78631E-04   -0.98657E-04 27744   0.917E-02
  26 F= -.62823774E+03 E0= -.62823774E+03  d E =-.232317E-02  mag=    19.9988
       N       E                     dE             d eps       ncg     rms          rms(c)
DAV:   1    -0.628237247875E+03    0.56979E-03   -0.23178E-02 21600   0.300E-01    0.125E-01
DAV:   2    -0.628237205973E+03    0.41902E-04   -0.12370E-03 27492   0.827E-02    0.978E-02
DAV:   3    -0.628237185825E+03    0.20149E-04   -0.12081E-04 15612   0.395E-02
  27 F= -.62823719E+03 E0= -.62823719E+03  d E =0.553214E-03  mag=    19.9990
       N       E                     dE             d eps       ncg     rms          rms(c)
DAV:   1    -0.628237492489E+03   -0.28652E-03   -0.21242E-02 21600   0.291E-01    0.106E-01
DAV:   2    -0.628237444339E+03    0.48150E-04   -0.13157E-03 29196   0.886E-02    0.908E-02
DAV:   3    -0.628237417433E+03    0.26906E-04   -0.12112E-04 13236   0.375E-02
  28 F= -.62823742E+03 E0= -.62823742E+03  d E =-.231608E-03  mag=    19.9990
       N       E                     dE             d eps       ncg     rms          rms(c)
DAV:   1    -0.628238132883E+03   -0.68854E-03   -0.61850E-01 21504   0.156E+00    0.287E-01
DAV:   2    -0.628239451300E+03   -0.13184E-02   -0.17371E-02 27660   0.308E-01    0.239E-01
DAV:   3    -0.628239394357E+03    0.56943E-04   -0.10482E-03 28536   0.898E-02    0.155E-01
DAV:   4    -0.628239287808E+03    0.10655E-03   -0.14791E-04 15444   0.334E-02    0.102E-01
DAV:   5    -0.628239217709E+03    0.70099E-04   -0.24458E-04 15948   0.406E-02
  29 F= -.62823922E+03 E0= -.62823922E+03  d E =-.180028E-02  mag=    19.9992
       N       E                     dE             d eps       ncg     rms          rms(c)
DAV:   1    -0.628242378057E+03   -0.30902E-02   -0.14820E+00 21504   0.248E+00    0.744E-01
DAV:   2    -0.628240053424E+03    0.23246E-02   -0.54828E-02 29376   0.559E-01    0.523E-01
DAV:   3    -0.628239035999E+03    0.10174E-02   -0.69471E-03 29988   0.241E-01    0.285E-01
DAV:   4    -0.628238563044E+03    0.47296E-03   -0.24307E-03 31896   0.112E-01    0.178E-01
DAV:   5    -0.628238433125E+03    0.12992E-03   -0.43291E-04 21324   0.625E-02    0.799E-02
DAV:   6    -0.628238440633E+03   -0.75080E-05   -0.30878E-04 17640   0.400E-02
  30 F= -.62823844E+03 E0= -.62823844E+03  d E =0.777076E-03  mag=    19.9994
       N       E                     dE             d eps       ncg     rms          rms(c)
DAV:   1    -0.628241381030E+03   -0.29479E-02   -0.51527E-01 21504   0.148E+00    0.434E-01
DAV:   2    -0.628240453055E+03    0.92797E-03   -0.18664E-02 29424   0.345E-01    0.320E-01
DAV:   3    -0.628240059193E+03    0.39386E-03   -0.26437E-03 30372   0.144E-01    0.176E-01
DAV:   4    -0.628239843486E+03    0.21571E-03   -0.67127E-04 25764   0.677E-02    0.107E-01
DAV:   5    -0.628239788658E+03    0.54828E-04   -0.13245E-04 13188   0.342E-02
  31 F= -.62823979E+03 E0= -.62823979E+03  d E =-.134803E-02  mag=    19.9995
       N       E                     dE             d eps       ncg     rms          rms(c)
DAV:   1    -0.628244966112E+03   -0.51226E-02   -0.56873E-01 21528   0.155E+00    0.641E-01
DAV:   2    -0.628241893085E+03    0.30730E-02   -0.37980E-02 30648   0.499E-01    0.518E-01
DAV:   3    -0.628240986833E+03    0.90625E-03   -0.79796E-03 30696   0.241E-01    0.296E-01
DAV:   4    -0.628240677867E+03    0.30897E-03   -0.20470E-03 31440   0.106E-01    0.184E-01
DAV:   5    -0.628240561026E+03    0.11684E-03   -0.33908E-04 20484   0.621E-02    0.721E-02
DAV:   6    -0.628240560503E+03    0.52291E-06   -0.24806E-04 15876   0.469E-02
  32 F= -.62824056E+03 E0= -.62824056E+03  d E =-.771844E-03  mag=    19.9996
       N       E                     dE             d eps       ncg     rms          rms(c)
DAV:   1    -0.628241939158E+03   -0.13781E-02   -0.25964E-01 21528   0.973E-01    0.230E-01
DAV:   2    -0.628242670543E+03   -0.73139E-03   -0.11674E-02 29076   0.288E-01    0.281E-01
DAV:   3    -0.628242599699E+03    0.70844E-04   -0.17333E-03 28872   0.984E-02    0.195E-01
DAV:   4    -0.628242516348E+03    0.83351E-04   -0.32392E-04 20028   0.369E-02
  33 F= -.62824252E+03 E0= -.62824252E+03  d E =-.195585E-02  mag=    19.9997
       N       E                     dE             d eps       ncg     rms          rms(c)
DAV:   1    -0.628243370261E+03   -0.77056E-03   -0.12271E-01 21552   0.685E-01    0.157E-01
DAV:   2    -0.628243566944E+03   -0.19668E-03   -0.43494E-03 30120   0.176E-01    0.147E-01
DAV:   3    -0.628243546128E+03    0.20816E-04   -0.96497E-04 27720   0.665E-02
  34 F= -.62824355E+03 E0= -.62824355E+03  d E =-.102978E-02  mag=    19.9997
       N       E                     dE             d eps       ncg     rms          rms(c)
DAV:   1    -0.628244333772E+03   -0.76683E-03   -0.45978E-01 21504   0.134E+00    0.296E-01
DAV:   2    -0.628245098279E+03   -0.76451E-03   -0.16541E-02 29388   0.318E-01    0.259E-01
DAV:   3    -0.628244986067E+03    0.11221E-03   -0.17376E-03 29664   0.114E-01    0.148E-01
DAV:   4    -0.628244896943E+03    0.89124E-04   -0.44890E-04 22536   0.493E-02
  35 F= -.62824490E+03 E0= -.62824490E+03  d E =-.135082E-02  mag=    19.9997
       N       E                     dE             d eps       ncg     rms          rms(c)
DAV:   1    -0.628245882854E+03   -0.89679E-03   -0.17096E-01 21528   0.806E-01    0.154E-01
DAV:   2    -0.628246153576E+03   -0.27072E-03   -0.59921E-03 27036   0.185E-01    0.148E-01
DAV:   3    -0.628246127420E+03    0.26156E-04   -0.50812E-04 23364   0.615E-02
  36 F= -.62824613E+03 E0= -.62824613E+03  d E =-.123048E-02  mag=    19.9997
       N       E                     dE             d eps       ncg     rms          rms(c)
DAV:   1    -0.628245656168E+03    0.49741E-03   -0.22673E-02 21696   0.300E-01    0.750E-02
DAV:   2    -0.628245710654E+03   -0.54487E-04   -0.82061E-04 24816   0.619E-02
  37 F= -.62824571E+03 E0= -.62824571E+03  d E =0.416766E-03  mag=    19.9998
       N       E                     dE             d eps       ncg     rms          rms(c)
DAV:   1    -0.628246027247E+03   -0.37108E-03   -0.23307E-01 21528   0.943E-01    0.131E-01
DAV:   2    -0.628246579626E+03   -0.55238E-03   -0.72665E-03 26628   0.202E-01    0.145E-01
DAV:   3    -0.628246584186E+03   -0.45600E-05   -0.70733E-04 24324   0.585E-02
  38 F= -.62824658E+03 E0= -.62824658E+03  d E =-.873532E-03  mag=    19.9998
       N       E                     dE             d eps       ncg     rms          rms(c)
DAV:   1    -0.628247306562E+03   -0.72694E-03   -0.14819E-01 21528   0.756E-01    0.164E-01
DAV:   2    -0.628247639623E+03   -0.33306E-03   -0.54523E-03 26760   0.173E-01    0.132E-01
DAV:   3    -0.628247612904E+03    0.26719E-04   -0.45172E-04 22740   0.552E-02
  39 F= -.62824761E+03 E0= -.62824761E+03  d E =-.102872E-02  mag=    19.9998
       N       E                     dE             d eps       ncg     rms          rms(c)
DAV:   1    -0.628248198129E+03   -0.55851E-03   -0.19280E-01 21504   0.866E-01    0.134E-01
DAV:   2    -0.628248575034E+03   -0.37691E-03   -0.50655E-03 26052   0.156E-01    0.801E-02
DAV:   3    -0.628248557244E+03    0.17791E-04   -0.24138E-04 17184   0.433E-02
  40 F= -.62824856E+03 E0= -.62824856E+03  d E =-.944340E-03  mag=    19.9998
       N       E                     dE             d eps       ncg     rms          rms(c)
DAV:   1    -0.628249296849E+03   -0.72181E-03   -0.10214E-01 21528   0.633E-01    0.123E-01
DAV:   2    -0.628249383888E+03   -0.87040E-04   -0.33543E-03 28872   0.135E-01    0.104E-01
DAV:   3    -0.628249351465E+03    0.32424E-04   -0.24566E-04 17532   0.471E-02
  41 F= -.62824935E+03 E0= -.62824935E+03  d E =-.794221E-03  mag=    19.9998
       N       E                     dE             d eps       ncg     rms          rms(c)
DAV:   1    -0.628249904560E+03   -0.52067E-03   -0.19605E-01 21516   0.874E-01    0.141E-01
DAV:   2    -0.628250298312E+03   -0.39375E-03   -0.55893E-03 25812   0.163E-01    0.101E-01
DAV:   3    -0.628250269347E+03    0.28965E-04   -0.23367E-04 17796   0.456E-02
  42 F= -.62825027E+03 E0= -.62825027E+03  d E =-.917882E-03  mag=    19.9999
       N       E                     dE             d eps       ncg     rms          rms(c)
DAV:   1    -0.628248812413E+03    0.14859E-02   -0.20235E-01 21504   0.887E-01    0.104E-01
DAV:   2    -0.628249321446E+03   -0.50903E-03   -0.61309E-03 26556   0.173E-01    0.104E-01
DAV:   3    -0.628249298887E+03    0.22558E-04   -0.26653E-04 17904   0.458E-02
  43 F= -.62824930E+03 E0= -.62824930E+03  d E =0.970459E-03  mag=    19.9999
       N       E                     dE             d eps       ncg     rms          rms(c)
DAV:   1    -0.628249958583E+03   -0.63714E-03   -0.29938E-01 21504   0.109E+00    0.215E-01
DAV:   2    -0.628250300957E+03   -0.34237E-03   -0.10711E-02 26664   0.234E-01    0.161E-01
DAV:   3    -0.628250241303E+03    0.59654E-04   -0.93548E-04 27864   0.814E-02
  44 F= -.62825024E+03 E0= -.62825024E+03  d E =-.942415E-03  mag=    19.9999
       N       E                     dE             d eps       ncg     rms          rms(c)
DAV:   1    -0.628250413471E+03   -0.11251E-03   -0.23678E-02 21576   0.286E-01    0.763E-02
DAV:   2    -0.628250529793E+03   -0.11632E-03   -0.17736E-03 29496   0.903E-02    0.885E-02
DAV:   3    -0.628250488870E+03    0.40923E-04   -0.11722E-04 14400   0.315E-02
  45 F= -.62825049E+03 E0= -.62825049E+03  d E =-.247567E-03  mag=    19.9999
       N       E                     dE             d eps       ncg     rms          rms(c)
DAV:   1    -0.628251068205E+03   -0.53841E-03   -0.13629E-01 21528   0.733E-01    0.133E-01
DAV:   2    -0.628251319275E+03   -0.25107E-03   -0.45827E-03 28356   0.154E-01    0.103E-01
DAV:   3    -0.628251275686E+03    0.43589E-04   -0.31760E-04 19476   0.540E-02
  46 F= -.62825128E+03 E0= -.62825128E+03  d E =-.786816E-03  mag=    19.9999
       N       E                     dE             d eps       ncg     rms          rms(c)
DAV:   1    -0.628251636629E+03   -0.31735E-03   -0.55744E-02 21528   0.464E-01    0.801E-02
DAV:   2    -0.628251756442E+03   -0.11981E-03   -0.14632E-03 24024   0.820E-02    0.550E-02
DAV:   3    -0.628251748197E+03    0.82453E-05   -0.48093E-05 12228   0.200E-02
  47 F= -.62825175E+03 E0= -.62825175E+03  d E =-.472511E-03  mag=    19.9999
       N       E                     dE             d eps       ncg     rms          rms(c)
DAV:   1    -0.628251527823E+03    0.22862E-03   -0.14434E-02 21528   0.238E-01    0.611E-02
DAV:   2    -0.628251540645E+03   -0.12821E-04   -0.62882E-04 23652   0.617E-02
  48 F= -.62825154E+03 E0= -.62825154E+03  d E =0.207552E-03  mag=    19.9999
       N       E                     dE             d eps       ncg     rms          rms(c)
DAV:   1    -0.628251786983E+03   -0.25916E-03   -0.31244E-02 21528   0.341E-01    0.611E-02
DAV:   2    -0.628251893949E+03   -0.10697E-03   -0.17388E-03 29364   0.100E-01    0.881E-02
DAV:   3    -0.628251867129E+03    0.26820E-04   -0.14389E-04 13596   0.304E-02
  49 F= -.62825187E+03 E0= -.62825187E+03  d E =-.326485E-03  mag=    19.9999
       N       E                     dE             d eps       ncg     rms          rms(c)
DAV:   1    -0.628252442994E+03   -0.54905E-03   -0.16264E-01 21504   0.801E-01    0.164E-01
DAV:   2    -0.628252521635E+03   -0.78641E-04   -0.50768E-03 26352   0.161E-01    0.953E-02
DAV:   3    -0.628252489233E+03    0.32402E-04   -0.43785E-04 22116   0.635E-02
  50 F= -.62825249E+03 E0= -.62825249E+03  d E =-.622103E-03  mag=    19.9999
       N       E                     dE             d eps       ncg     rms          rms(c)
DAV:   1    -0.628253185274E+03   -0.66364E-03   -0.84475E-02 21528   0.577E-01    0.137E-01
DAV:   2    -0.628253201324E+03   -0.16050E-04   -0.34311E-03 29472   0.141E-01    0.117E-01
DAV:   3    -0.628253161418E+03    0.39906E-04   -0.27363E-04 18108   0.512E-02
  51 F= -.62825316E+03 E0= -.62825316E+03  d E =-.672185E-03  mag=    19.9999
       N       E                     dE             d eps       ncg     rms          rms(c)
DAV:   1    -0.628252136351E+03    0.10650E-02   -0.12141E+00 21504   0.216E+00    0.291E-01
DAV:   2    -0.628255015135E+03   -0.28788E-02   -0.31780E-02 25344   0.380E-01    0.188E-01
DAV:   3    -0.628255019412E+03   -0.42770E-05   -0.14129E-03 30132   0.905E-02    0.136E-01
DAV:   4    -0.628254937330E+03    0.82082E-04   -0.99447E-05 13884   0.277E-02
  52 F= -.62825494E+03 E0= -.62825494E+03  d E =-.177591E-02  mag=    19.9999
       N       E                     dE             d eps       ncg     rms          rms(c)
DAV:   1    -0.628251282473E+03    0.37369E-02   -0.87576E-01 21504   0.184E+00    0.223E-01
DAV:   2    -0.628253496191E+03   -0.22137E-02   -0.24917E-02 24408   0.332E-01    0.154E-01
DAV:   3    -0.628253471200E+03    0.24991E-04   -0.10405E-03 27396   0.770E-02    0.765E-02
DAV:   4    -0.628253395227E+03    0.75973E-04   -0.12858E-04 12792   0.366E-02
  53 F= -.62825340E+03 E0= -.62825340E+03  d E =0.154210E-02  mag=    20.0000
       N       E                     dE             d eps       ncg     rms          rms(c)
DAV:   1    -0.628252722939E+03    0.74826E-03   -0.16766E-01 21504   0.817E-01    0.179E-01
DAV:   2    -0.628252909493E+03   -0.18655E-03   -0.61329E-03 29544   0.193E-01    0.169E-01
DAV:   3    -0.628252830040E+03    0.79453E-04   -0.57198E-04 23580   0.682E-02
  54 F= -.62825283E+03 E0= -.62825283E+03  d E =0.565186E-03  mag=    20.0000
       N       E                     dE             d eps       ncg     rms          rms(c)
DAV:   1    -0.628253052493E+03   -0.14300E-03   -0.43973E-01 21504   0.131E+00    0.182E-01
DAV:   2    -0.628253998305E+03   -0.94581E-03   -0.12803E-02 25416   0.246E-01    0.133E-01
DAV:   3    -0.628253987432E+03    0.10873E-04   -0.71482E-04 25860   0.613E-02
  55 F= -.62825399E+03 E0= -.62825399E+03  d E =-.115739E-02  mag=    20.0000
       N       E                     dE             d eps       ncg     rms          rms(c)
DAV:   1    -0.628254360427E+03   -0.36212E-03   -0.31951E-02 21552   0.353E-01    0.714E-02
DAV:   2    -0.628254424051E+03   -0.63624E-04   -0.13211E-03 28092   0.836E-02    0.702E-02
DAV:   3    -0.628254405288E+03    0.18763E-04   -0.90557E-05 12300   0.266E-02
  56 F= -.62825441E+03 E0= -.62825441E+03  d E =-.417856E-03  mag=    20.0000
       N       E                     dE             d eps       ncg     rms          rms(c)
DAV:   1    -0.628254750945E+03   -0.32689E-03   -0.28059E-02 21528   0.337E-01    0.100E-01
DAV:   2    -0.628254699849E+03    0.51096E-04   -0.11677E-03 27168   0.829E-02    0.727E-02
DAV:   3    -0.628254677229E+03    0.22620E-04   -0.13881E-04 16104   0.386E-02
  57 F= -.62825468E+03 E0= -.62825468E+03  d E =-.271941E-03  mag=    20.0000
       N       E                     dE             d eps       ncg     rms          rms(c)
DAV:   1    -0.628255015849E+03   -0.31600E-03   -0.98813E-02 21504   0.619E-01    0.918E-02
DAV:   2    -0.628255248512E+03   -0.23266E-03   -0.27427E-03 25560   0.113E-01    0.673E-02
DAV:   3    -0.628255238376E+03    0.10136E-04   -0.94238E-05 12924   0.286E-02
  58 F= -.62825524E+03 E0= -.62825524E+03  d E =-.561146E-03  mag=    20.0000
       N       E                     dE             d eps       ncg     rms          rms(c)
DAV:   1    -0.628255087174E+03    0.16134E-03   -0.65129E-03 21528   0.158E-01    0.473E-02
DAV:   2    -0.628255097987E+03   -0.10812E-04   -0.22315E-04 17004   0.488E-02
  59 F= -.62825510E+03 E0= -.62825510E+03  d E =0.140389E-03  mag=    20.0000
       N       E                     dE             d eps       ncg     rms          rms(c)
DAV:   1    -0.628255620226E+03   -0.53305E-03   -0.22397E-01 21504   0.939E-01    0.178E-01
DAV:   2    -0.628255919553E+03   -0.29933E-03   -0.81785E-03 28956   0.216E-01    0.161E-01
DAV:   3    -0.628255849224E+03    0.70329E-04   -0.86952E-04 26868   0.765E-02
  60 F= -.62825585E+03 E0= -.62825585E+03  d E =-.751237E-03  mag=    20.0000
       N       E                     dE             d eps       ncg     rms          rms(c)
DAV:   1    -0.628256154631E+03   -0.23508E-03   -0.88373E-02 21504   0.581E-01    0.873E-02
DAV:   2    -0.628256426741E+03   -0.27211E-03   -0.34284E-03 29244   0.135E-01    0.104E-01
DAV:   3    -0.628256380335E+03    0.46406E-04   -0.20825E-04 16464   0.402E-02
  61 F= -.62825638E+03 E0= -.62825638E+03  d E =-.531111E-03  mag=    20.0000
       N       E                     dE             d eps       ncg     rms          rms(c)
DAV:   1    -0.628256412180E+03    0.14561E-04   -0.38437E-01 21504   0.122E+00    0.162E-01
DAV:   2    -0.628257433140E+03   -0.10210E-02   -0.98410E-03 25224   0.214E-01    0.110E-01
DAV:   3    -0.628257439705E+03   -0.65646E-05   -0.35718E-04 19872   0.528E-02
  62 F= -.62825744E+03 E0= -.62825744E+03  d E =-.105937E-02  mag=    20.0000
       N       E                     dE             d eps       ncg     rms          rms(c)
DAV:   1    -0.628257683234E+03   -0.25009E-03   -0.39024E-02 21600   0.386E-01    0.660E-02
DAV:   2    -0.628257751074E+03   -0.67840E-04   -0.91529E-04 23424   0.654E-02
  63 F= -.62825775E+03 E0= -.62825775E+03  d E =-.311369E-03  mag=    20.0000
       N       E                     dE             d eps       ncg     rms          rms(c)
DAV:   1    -0.628256449190E+03    0.12340E-02   -0.24070E-01 21504   0.975E-01    0.134E-01
DAV:   2    -0.628256995844E+03   -0.54665E-03   -0.72418E-03 25128   0.186E-01    0.934E-02
DAV:   3    -0.628256978824E+03    0.17020E-04   -0.31487E-04 18288   0.532E-02
  64 F= -.62825698E+03 E0= -.62825698E+03  d E =0.772250E-03  mag=    20.0000
       N       E                     dE             d eps       ncg     rms          rms(c)
DAV:   1    -0.628256052615E+03    0.94323E-03   -0.65525E-01 21504   0.158E+00    0.255E-01
DAV:   2    -0.628258103069E+03   -0.20505E-02   -0.17189E-02 24660   0.286E-01    0.152E-01
DAV:   3    -0.628258254432E+03   -0.15136E-03   -0.10594E-03 28032   0.764E-02    0.920E-02
DAV:   4    -0.628258226358E+03    0.28074E-04   -0.69509E-05 13524   0.241E-02
  65 F= -.62825823E+03 E0= -.62825823E+03  d E =-.124753E-02  mag=    20.0000
       N       E                     dE             d eps       ncg     rms          rms(c)
DAV:   1    -0.628257066752E+03    0.11877E-02   -0.13235E-01 21504   0.680E-01    0.244E-01
DAV:   2    -0.628257723808E+03   -0.65706E-03   -0.38973E-03 27252   0.151E-01    0.135E-01
DAV:   3    -0.628257848783E+03   -0.12498E-03   -0.46558E-04 21384   0.597E-02    0.638E-02
DAV:   4    -0.628257840752E+03    0.80310E-05   -0.65995E-05 12852   0.246E-02
  66 F= -.62825784E+03 E0= -.62825784E+03  d E =0.385606E-03  mag=    20.0000
       N       E                     dE             d eps       ncg     rms          rms(c)
DAV:   1    -0.628257580866E+03    0.26792E-03   -0.16332E-02 21564   0.248E-01    0.554E-02
DAV:   2    -0.628257637382E+03   -0.56516E-04   -0.41005E-04 17688   0.522E-02
  67 F= -.62825764E+03 E0= -.62825764E+03  d E =0.203371E-03  mag=    20.0000
       N       E                     dE             d eps       ncg     rms          rms(c)
DAV:   1    -0.628257617767E+03   -0.36901E-04   -0.25314E-02 21504   0.283E-01    0.135E-01
DAV:   2    -0.628257783092E+03   -0.16533E-03   -0.71863E-04 23088   0.657E-02    0.738E-02
DAV:   3    -0.628257817864E+03   -0.34772E-04   -0.72627E-05 13656   0.278E-02
  68 F= -.62825782E+03 E0= -.62825782E+03  d E =-.180482E-03  mag=    20.0000
       N       E                     dE             d eps       ncg     rms          rms(c)
DAV:   1    -0.628257949120E+03   -0.16603E-03   -0.14753E-01 21504   0.756E-01    0.193E-01
DAV:   2    -0.628258302177E+03   -0.35306E-03   -0.53283E-03 28188   0.174E-01    0.154E-01
DAV:   3    -0.628258283022E+03    0.19155E-04   -0.53563E-04 22260   0.672E-02
  69 F= -.62825828E+03 E0= -.62825828E+03  d E =-.465158E-03  mag=    20.0000
       N       E                     dE             d eps       ncg     rms          rms(c)
DAV:   1    -0.628257498799E+03    0.80338E-03   -0.33256E-01 21504   0.110E+00    0.301E-01
DAV:   2    -0.628259003250E+03   -0.15045E-02   -0.10121E-02 26784   0.244E-01    0.216E-01
DAV:   3    -0.628259105794E+03   -0.10254E-03   -0.95202E-04 25992   0.829E-02    0.808E-02
DAV:   4    -0.628259068622E+03    0.37171E-04   -0.14128E-04 16248   0.377E-02
  70 F= -.62825907E+03 E0= -.62825907E+03  d E =-.785600E-03  mag=    20.0000
       N       E                     dE             d eps       ncg     rms          rms(c)
DAV:   1    -0.628258704580E+03    0.40121E-03   -0.35256E-02 21552   0.310E-01    0.198E-01
DAV:   2    -0.628258914394E+03   -0.20981E-03   -0.14530E-03 27864   0.975E-02    0.108E-01
DAV:   3    -0.628258962684E+03   -0.48290E-04   -0.21985E-04 17724   0.472E-02
  71 F= -.62825896E+03 E0= -.62825896E+03  d E =0.105938E-03  mag=    20.0000
       N       E                     dE             d eps       ncg     rms          rms(c)
DAV:   1    -0.628258520233E+03    0.39416E-03   -0.18512E-01 21504   0.817E-01    0.192E-01
DAV:   2    -0.628258940996E+03   -0.42076E-03   -0.93621E-03 29004   0.259E-01    0.269E-01
DAV:   3    -0.628258900136E+03    0.40860E-04   -0.13503E-03 26244   0.777E-02    0.213E-01
DAV:   4    -0.628258767406E+03    0.13273E-03   -0.39237E-04 19800   0.420E-02    0.177E-01
DAV:   5    -0.628258740435E+03    0.26971E-04   -0.75733E-04 24456   0.572E-02
  72 F= -.62825874E+03 E0= -.62825874E+03  d E =0.222249E-03  mag=    20.0000
       N       E                     dE             d eps       ncg     rms          rms(c)
DAV:   1    -0.628259556420E+03   -0.78901E-03   -0.95370E-02 21504   0.584E-01    0.171E-01
DAV:   2    -0.628259779302E+03   -0.22288E-03   -0.46425E-03 26280   0.184E-01    0.204E-01
DAV:   3    -0.628259711788E+03    0.67515E-04   -0.42405E-04 22380   0.577E-02
  73 F= -.62825971E+03 E0= -.62825971E+03  d E =-.971352E-03  mag=    20.0000
       N       E                     dE             d eps       ncg     rms          rms(c)
DAV:   1    -0.628259855144E+03   -0.75842E-04   -0.11931E-01 21504   0.682E-01    0.181E-01
DAV:   2    -0.628259980037E+03   -0.12489E-03   -0.34937E-03 28080   0.151E-01    0.100E-01
DAV:   3    -0.628259972893E+03    0.71439E-05   -0.48965E-04 23604   0.614E-02
  74 F= -.62825997E+03 E0= -.62825997E+03  d E =-.261105E-03  mag=    20.0000
       N       E                     dE             d eps       ncg     rms          rms(c)
DAV:   1    -0.628260342408E+03   -0.36237E-03   -0.28864E-02 22200   0.343E-01    0.966E-02
DAV:   2    -0.628260300220E+03    0.42188E-04   -0.12736E-03 28248   0.951E-02    0.879E-02
DAV:   3    -0.628260287684E+03    0.12537E-04   -0.13431E-04 13272   0.375E-02
  75 F= -.62826029E+03 E0= -.62826029E+03  d E =-.314791E-03  mag=    20.0000
       N       E                     dE             d eps       ncg     rms          rms(c)
DAV:   1    -0.628260413938E+03   -0.11372E-03   -0.11806E-02 21648   0.215E-01    0.576E-02
DAV:   2    -0.628260423037E+03   -0.90995E-05   -0.32281E-04 18132   0.438E-02
  76 F= -.62826042E+03 E0= -.62826042E+03  d E =-.135354E-03  mag=    20.0000
       N       E                     dE             d eps       ncg     rms          rms(c)
DAV:   1    -0.628260647673E+03   -0.23374E-03   -0.76630E-02 21504   0.547E-01    0.122E-01
DAV:   2    -0.628260769179E+03   -0.12151E-03   -0.28203E-03 30036   0.125E-01    0.111E-01
DAV:   3    -0.628260738688E+03    0.30491E-04   -0.18411E-04 16392   0.432E-02
  77 F= -.62826074E+03 E0= -.62826074E+03  d E =-.315651E-03  mag=    20.0000
       N       E                     dE             d eps       ncg     rms          rms(c)
DAV:   1    -0.628260880217E+03   -0.11104E-03   -0.93145E-03 21624   0.191E-01    0.532E-02
DAV:   2    -0.628260886033E+03   -0.58160E-05   -0.24102E-04 14748   0.386E-02
  78 F= -.62826089E+03 E0= -.62826089E+03  d E =-.147345E-03  mag=    20.0000
       N       E                     dE             d eps       ncg     rms          rms(c)
DAV:   1    -0.628260768705E+03    0.11151E-03   -0.65891E-02 21504   0.515E-01    0.138E-01
DAV:   2    -0.628260857209E+03   -0.88504E-04   -0.24622E-03 30000   0.126E-01    0.111E-01
DAV:   3    -0.628260844991E+03    0.12217E-04   -0.15862E-04 16284   0.500E-02
  79 F= -.62826084E+03 E0= -.62826084E+03  d E =0.410419E-04  mag=    20.0000
       N       E                     dE             d eps       ncg     rms          rms(c)
DAV:   1    -0.628261250197E+03   -0.39299E-03   -0.16939E-01 21504   0.825E-01    0.170E-01
DAV:   2    -0.628261462950E+03   -0.21275E-03   -0.67161E-03 29460   0.196E-01    0.153E-01
DAV:   3    -0.628261392893E+03    0.70057E-04   -0.64752E-04 24264   0.753E-02
  80 F= -.62826139E+03 E0= -.62826139E+03  d E =-.547901E-03  mag=    20.0000
       N       E                     dE             d eps       ncg     rms          rms(c)
DAV:   1    -0.628261579867E+03   -0.11692E-03   -0.85668E-02 21504   0.570E-01    0.105E-01
DAV:   2    -0.628261758785E+03   -0.17892E-03   -0.32377E-03 28284   0.141E-01    0.121E-01
DAV:   3    -0.628261733808E+03    0.24976E-04   -0.29634E-04 19800   0.426E-02
  81 F= -.62826173E+03 E0= -.62826173E+03  d E =-.340916E-03  mag=    20.0000
       N       E                     dE             d eps       ncg     rms          rms(c)
DAV:   1    -0.628261978176E+03   -0.21939E-03   -0.18625E-02 21600   0.275E-01    0.109E-01
DAV:   2    -0.628261906062E+03    0.72114E-04   -0.13407E-03 29952   0.851E-02    0.809E-02
DAV:   3    -0.628261860684E+03    0.45378E-04   -0.16303E-04 16632   0.425E-02
  82 F= -.62826186E+03 E0= -.62826186E+03  d E =-.126876E-03  mag=    20.0000
       N       E                     dE             d eps       ncg     rms          rms(c)
DAV:   1    -0.628262110320E+03   -0.20426E-03   -0.91544E-02 21504   0.599E-01    0.133E-01
DAV:   2    -0.628262179518E+03   -0.69198E-04   -0.34356E-03 28656   0.143E-01    0.123E-01
DAV:   3    -0.628262159134E+03    0.20384E-04   -0.29049E-04 18564   0.490E-02
  83 F= -.62826216E+03 E0= -.62826216E+03  d E =-.298450E-03  mag=    20.0000
       N       E                     dE             d eps       ncg     rms          rms(c)
DAV:   1    -0.628262314024E+03   -0.13451E-03   -0.94927E-03 22032   0.199E-01    0.808E-02
DAV:   2    -0.628262295606E+03    0.18418E-04   -0.93036E-04 27528   0.736E-02
  84 F= -.62826230E+03 E0= -.62826230E+03  d E =-.136471E-03  mag=    20.0000
       N       E                     dE             d eps       ncg     rms          rms(c)
DAV:   1    -0.628262587453E+03   -0.27343E-03   -0.94829E-02 21504   0.613E-01    0.164E-01
DAV:   2    -0.628262598841E+03   -0.11388E-04   -0.37127E-03 30588   0.158E-01    0.142E-01
DAV:   3    -0.628262567654E+03    0.31187E-04   -0.35340E-04 21012   0.591E-02
  85 F= -.62826257E+03 E0= -.62826257E+03  d E =-.272048E-03  mag=    20.0000
       N       E                     dE             d eps       ncg     rms          rms(c)
DAV:   1    -0.628262720247E+03   -0.12141E-03   -0.23048E-02 21528   0.300E-01    0.505E-02
DAV:   2    -0.628262791949E+03   -0.71702E-04   -0.10410E-03 27768   0.751E-02    0.639E-02
DAV:   3    -0.628262781557E+03    0.10392E-04   -0.53598E-05 12048   0.236E-02
  86 F= -.62826278E+03 E0= -.62826278E+03  d E =-.213903E-03  mag=    20.0000
       N       E                     dE             d eps       ncg     rms          rms(c)
DAV:   1    -0.628262918834E+03   -0.12688E-03   -0.22417E-02 21528   0.296E-01    0.579E-02
DAV:   2    -0.628262946212E+03   -0.27378E-04   -0.65546E-04 21684   0.565E-02
  87 F= -.62826295E+03 E0= -.62826295E+03  d E =-.164655E-03  mag=    20.0000
       N       E                     dE             d eps       ncg     rms          rms(c)
DAV:   1    -0.628263003238E+03   -0.84404E-04   -0.73198E-02 21504   0.525E-01    0.100E-01
DAV:   2    -0.628263244488E+03   -0.24125E-03   -0.19714E-03 25488   0.967E-02    0.663E-02
DAV:   3    -0.628263251346E+03   -0.68588E-05   -0.83471E-05 12900   0.262E-02
  88 F= -.62826325E+03 E0= -.62826325E+03  d E =-.305135E-03  mag=    20.0000
       N       E                     dE             d eps       ncg     rms          rms(c)
DAV:   1    -0.628263142993E+03    0.10149E-03   -0.52549E-03 21240   0.142E-01    0.406E-02
DAV:   2    -0.628263156716E+03   -0.13723E-04   -0.15699E-04 13308   0.304E-02
  89 F= -.62826316E+03 E0= -.62826316E+03  d E =0.946309E-04  mag=    20.0000
       N       E                     dE             d eps       ncg     rms          rms(c)
DAV:   1    -0.628263281380E+03   -0.13839E-03   -0.74634E-02 21528   0.537E-01    0.633E-02
DAV:   2    -0.628263458875E+03   -0.17749E-03   -0.21065E-03 25608   0.987E-02    0.417E-02
DAV:   3    -0.628263455493E+03    0.33812E-05   -0.63845E-05 11940   0.226E-02
  90 F= -.62826346E+03 E0= -.62826346E+03  d E =-.298778E-03  mag=    20.0000
       N       E                     dE             d eps       ncg     rms          rms(c)
DAV:   1    -0.628263498468E+03   -0.39594E-04   -0.11054E-03 20436   0.672E-02    0.376E-02
DAV:   2    -0.628263486304E+03    0.12165E-04   -0.81923E-05 11820   0.278E-02
  91 F= -.62826349E+03 E0= -.62826349E+03  d E =-.308102E-04  mag=    20.0000
       N       E                     dE             d eps       ncg     rms          rms(c)
DAV:   1    -0.628263596838E+03   -0.98370E-04   -0.42778E-02 21528   0.408E-01    0.782E-02
DAV:   2    -0.628263670142E+03   -0.73304E-04   -0.14344E-03 27612   0.870E-02    0.736E-02
DAV:   3    -0.628263654971E+03    0.15171E-04   -0.89961E-05 13416   0.285E-02
  92 F= -.62826365E+03 E0= -.62826365E+03  d E =-.168668E-03  mag=    20.0000
       N       E                     dE             d eps       ncg     rms          rms(c)
DAV:   1    -0.628263787958E+03   -0.11782E-03   -0.94651E-03 21852   0.199E-01    0.651E-02
DAV:   2    -0.628263776477E+03    0.11481E-04   -0.70479E-04 26016   0.701E-02
  93 F= -.62826378E+03 E0= -.62826378E+03  d E =-.121506E-03  mag=    20.0000
       N       E                     dE             d eps       ncg     rms          rms(c)
DAV:   1    -0.628263855569E+03   -0.67610E-04   -0.48329E-02 21528   0.430E-01    0.697E-02
DAV:   2    -0.628263993115E+03   -0.13755E-03   -0.13920E-03 27144   0.849E-02    0.532E-02
DAV:   3    -0.628263991593E+03    0.15216E-05   -0.55863E-05 12360   0.246E-02
  94 F= -.62826399E+03 E0= -.62826399E+03  d E =-.215116E-03  mag=    20.0000
       N       E                     dE             d eps       ncg     rms          rms(c)
DAV:   1    -0.628263993044E+03    0.70933E-07   -0.94431E-05 11940   0.190E-02    0.204E-02
DAV:   2    -0.628263990404E+03    0.26400E-05   -0.12495E-05 11604   0.105E-02
  95 F= -.62826399E+03 E0= -.62826399E+03  d E =0.118929E-05  mag=    20.0000
       N       E                     dE             d eps       ncg     rms          rms(c)
DAV:   1    -0.628263983586E+03    0.94577E-05   -0.12308E-04 11256   0.229E-02    0.134E-02
DAV:   2    -0.628263983472E+03    0.11372E-06   -0.95586E-06 11184   0.106E-02
  96 F= -.62826398E+03 E0= -.62826398E+03  d E =0.693146E-05  mag=    20.0000
       N       E                     dE             d eps       ncg     rms          rms(c)
DAV:   1    -0.628263992331E+03   -0.87448E-05   -0.22558E-03 20100   0.903E-02    0.235E-02
DAV:   2    -0.628263997438E+03   -0.51075E-05   -0.88460E-05 12540   0.260E-02
  97 F= -.62826400E+03 E0= -.62826400E+03  d E =-.139660E-04  mag=    20.0000
       N       E                     dE             d eps       ncg     rms          rms(c)
DAV:   1    -0.628263980392E+03    0.11939E-04   -0.20344E-03 21168   0.895E-02    0.322E-02
DAV:   2    -0.628263975994E+03    0.43987E-05   -0.62049E-05 11892   0.239E-02
  98 F= -.62826398E+03 E0= -.62826398E+03  d E =0.214448E-04  mag=    20.0000
       N       E                     dE             d eps       ncg     rms          rms(c)
DAV:   1    -0.628264087126E+03   -0.10673E-03   -0.68496E-02 21528   0.521E-01    0.104E-01
DAV:   2    -0.628264205603E+03   -0.11848E-03   -0.24865E-03 30444   0.122E-01    0.106E-01
DAV:   3    -0.628264179702E+03    0.25900E-04   -0.13454E-04 14904   0.390E-02
  99 F= -.62826418E+03 E0= -.62826418E+03  d E =-.203709E-03  mag=    20.0000
       N       E                     dE             d eps       ncg     rms          rms(c)
DAV:   1    -0.628264212920E+03   -0.73174E-05   -0.26657E-03 21528   0.107E-01    0.440E-02
DAV:   2    -0.628264198470E+03    0.14450E-04   -0.92735E-05 12192   0.290E-02
 100 F= -.62826420E+03 E0= -.62826420E+03  d E =-.187675E-04  mag=    20.0000
       N       E                     dE             d eps       ncg     rms          rms(c)
DAV:   1    -0.628264228275E+03   -0.15355E-04   -0.19117E-01 21504   0.889E-01    0.249E-01
DAV:   2    -0.628264145776E+03    0.82499E-04   -0.74559E-03 28464   0.209E-01    0.180E-01
DAV:   3    -0.628264041477E+03    0.10430E-03   -0.83841E-04 26520   0.883E-02    0.117E-01
DAV:   4    -0.628263997199E+03    0.44278E-04   -0.12872E-04 13896   0.314E-02
 101 F= -.62826400E+03 E0= -.62826400E+03  d E =0.201271E-03  mag=    20.0000
       N       E                     dE             d eps       ncg     rms          rms(c)
DAV:   1    -0.628267130905E+03   -0.30894E-02   -0.40754E-01 21528   0.133E+00    0.527E-01
DAV:   2    -0.628264574018E+03    0.25569E-02   -0.23768E-02 30444   0.385E-01    0.379E-01
DAV:   3    -0.628264008542E+03    0.56548E-03   -0.43175E-03 30108   0.184E-01    0.162E-01
DAV:   4    -0.628263806258E+03    0.20228E-03   -0.74954E-04 25440   0.677E-02    0.102E-01
DAV:   5    -0.628263759822E+03    0.46436E-04   -0.13055E-04 13500   0.380E-02
 102 F= -.62826376E+03 E0= -.62826376E+03  d E =0.237377E-03  mag=    20.0000
       N       E                     dE             d eps       ncg     rms          rms(c)
DAV:   1    -0.628265086845E+03   -0.12806E-02   -0.23542E-01 21504   0.985E-01    0.316E-01
DAV:   2    -0.628264668034E+03    0.41881E-03   -0.12419E-02 31068   0.293E-01    0.299E-01
DAV:   3    -0.628264446616E+03    0.22142E-03   -0.18380E-03 30960   0.111E-01    0.136E-01
DAV:   4    -0.628264346877E+03    0.99740E-04   -0.39772E-04 20808   0.537E-02
 103 F= -.62826435E+03 E0= -.62826435E+03  d E =-.587054E-03  mag=    20.0000
       N       E                     dE             d eps       ncg     rms          rms(c)
DAV:   1    -0.628264436352E+03    0.10264E-04   -0.43892E-02 21528   0.394E-01    0.919E-02
DAV:   2    -0.628264577270E+03   -0.14092E-03   -0.27365E-03 28608   0.143E-01    0.148E-01
DAV:   3    -0.628264538990E+03    0.38280E-04   -0.19545E-04 15636   0.379E-02
 104 F= -.62826454E+03 E0= -.62826454E+03  d E =-.192114E-03  mag=    20.0000
       N       E                     dE             d eps       ncg     rms          rms(c)
DAV:   1    -0.628264596027E+03   -0.18757E-04   -0.75727E-03 21588   0.165E-01    0.826E-02
DAV:   2    -0.628264632844E+03   -0.36817E-04   -0.12871E-03 29064   0.764E-02    0.646E-02
DAV:   3    -0.628264577414E+03    0.55430E-04   -0.19176E-04 16872   0.408E-02
 105 F= -.62826458E+03 E0= -.62826458E+03  d E =-.384241E-04  mag=    20.0000
       N       E                     dE             d eps       ncg     rms          rms(c)
DAV:   1    -0.628264707104E+03   -0.74259E-04   -0.92591E-02 21528   0.600E-01    0.120E-01
DAV:   2    -0.628264868221E+03   -0.16112E-03   -0.29231E-03 27864   0.124E-01    0.908E-02
DAV:   3    -0.628264859516E+03    0.87050E-05   -0.21037E-04 16884   0.455E-02
 106 F= -.62826486E+03 E0= -.62826486E+03  d E =-.282102E-03  mag=    20.0000
       N       E                     dE             d eps       ncg     rms          rms(c)
DAV:   1    -0.628264945560E+03   -0.77339E-04   -0.31090E-02 21528   0.346E-01    0.514E-02
DAV:   2    -0.628265016640E+03   -0.71080E-04   -0.81862E-04 24660   0.650E-02
 107 F= -.62826502E+03 E0= -.62826502E+03  d E =-.157124E-03  mag=    20.0000
       N       E                     dE             d eps       ncg     rms          rms(c)
DAV:   1    -0.628265018809E+03   -0.73248E-04   -0.94789E-02 21504   0.602E-01    0.105E-01
DAV:   2    -0.628265286476E+03   -0.26767E-03   -0.25272E-03 25632   0.111E-01    0.723E-02
DAV:   3    -0.628265285033E+03    0.14431E-05   -0.94167E-05 13296   0.298E-02
 108 F= -.62826529E+03 E0= -.62826529E+03  d E =-.268393E-03  mag=    20.0000
       N       E                     dE             d eps       ncg     rms          rms(c)
DAV:   1    -0.628265424483E+03   -0.13801E-03   -0.33477E-02 21528   0.361E-01    0.744E-02
DAV:   2    -0.628265471707E+03   -0.47225E-04   -0.11959E-03 27432   0.819E-02    0.654E-02
DAV:   3    -0.628265453944E+03    0.17764E-04   -0.94649E-05 13200   0.302E-02
 109 F= -.62826545E+03 E0= -.62826545E+03  d E =-.168911E-03  mag=    20.0000
       N       E                     dE             d eps       ncg     rms          rms(c)
DAV:   1    -0.628265519683E+03   -0.47976E-04   -0.76945E-03 21624   0.172E-01    0.354E-02
DAV:   2    -0.628265526885E+03   -0.72020E-05   -0.17841E-04 13836   0.331E-02
 110 F= -.62826553E+03 E0= -.62826553E+03  d E =-.729413E-04  mag=    20.0000
       N       E                     dE             d eps       ncg     rms          rms(c)
DAV:   1    -0.628265588261E+03   -0.68578E-04   -0.22545E-02 21528   0.296E-01    0.588E-02
DAV:   2    -0.628265631480E+03   -0.43219E-04   -0.69765E-04 24360   0.648E-02
 111 F= -.62826563E+03 E0= -.62826563E+03  d E =-.104595E-03  mag=    20.0000
       N       E                     dE             d eps       ncg     rms          rms(c)
DAV:   1    -0.628265672802E+03   -0.84541E-04   -0.15828E-02 21552   0.247E-01    0.756E-02
DAV:   2    -0.628265672992E+03   -0.18902E-06   -0.10051E-03 27336   0.882E-02    0.952E-02
DAV:   3    -0.628265651360E+03    0.21631E-04   -0.94538E-05 13524   0.284E-02
 112 F= -.62826565E+03 E0= -.62826565E+03  d E =-.198799E-04  mag=    20.0000
       N       E                     dE             d eps       ncg     rms          rms(c)
DAV:   1    -0.628265730685E+03   -0.57694E-04   -0.52217E-02 21528   0.447E-01    0.736E-02
DAV:   2    -0.628265892543E+03   -0.16186E-03   -0.19241E-03 28680   0.102E-01    0.843E-02
DAV:   3    -0.628265868270E+03    0.24274E-04   -0.11563E-04 13200   0.310E-02
 113 F= -.62826587E+03 E0= -.62826587E+03  d E =-.216909E-03  mag=    20.0000
       N       E                     dE             d eps       ncg     rms          rms(c)
DAV:   1    -0.628265992355E+03   -0.99812E-04   -0.22378E-02 21780   0.303E-01    0.855E-02
DAV:   2    -0.628265963934E+03    0.28421E-04   -0.95165E-04 26616   0.837E-02
 114 F= -.62826596E+03 E0= -.62826596E+03  d E =-.956641E-04  mag=    20.0000
       N       E                     dE             d eps       ncg     rms          rms(c)
DAV:   1    -0.628265981492E+03    0.10863E-04   -0.32627E-02 21528   0.351E-01    0.624E-02
DAV:   2    -0.628266077955E+03   -0.96462E-04   -0.13633E-03 28044   0.931E-02    0.828E-02
DAV:   3    -0.628266066069E+03    0.11886E-04   -0.10462E-04 12768   0.274E-02
 115 F= -.62826607E+03 E0= -.62826607E+03  d E =-.102135E-03  mag=    20.0000
       N       E                     dE             d eps       ncg     rms          rms(c)
DAV:   1    -0.628266121296E+03   -0.43341E-04   -0.21803E-03 22140   0.957E-02    0.487E-02
DAV:   2    -0.628266111008E+03    0.10288E-04   -0.20838E-04 15384   0.370E-02
 116 F= -.62826611E+03 E0= -.62826611E+03  d E =-.449395E-04  mag=    20.0000
       N       E                     dE             d eps       ncg     rms          rms(c)
DAV:   1    -0.628266233354E+03   -0.11206E-03   -0.10547E-01 21672   0.650E-01    0.141E-01
DAV:   2    -0.628266239538E+03   -0.61840E-05   -0.38699E-03 28716   0.139E-01    0.999E-02
DAV:   3    -0.628266199803E+03    0.39735E-04   -0.33477E-04 20316   0.566E-02
 117 F= -.62826620E+03 E0= -.62826620E+03  d E =-.887949E-04  mag=    20.0000
       N       E                     dE             d eps       ncg     rms          rms(c)
DAV:   1    -0.628266203528E+03    0.36010E-04   -0.62834E-02 21528   0.471E-01    0.138E-01
DAV:   2    -0.628266303464E+03   -0.99936E-04   -0.35656E-03 29220   0.145E-01    0.161E-01
DAV:   3    -0.628266259466E+03    0.43997E-04   -0.40537E-04 22032   0.483E-02
 118 F= -.62826626E+03 E0= -.62826626E+03  d E =-.596633E-04  mag=    20.0000
       N       E                     dE             d eps       ncg     rms          rms(c)
DAV:   1    -0.628266484946E+03   -0.18148E-03   -0.17451E-02 21900   0.268E-01    0.106E-01
DAV:   2    -0.628266469350E+03    0.15597E-04   -0.17070E-03 30336   0.928E-02    0.853E-02
DAV:   3    -0.628266406768E+03    0.62582E-04   -0.21642E-04 17328   0.446E-02
 119 F= -.62826641E+03 E0= -.62826641E+03  d E =-.147301E-03  mag=    20.0000
       N       E                     dE             d eps       ncg     rms          rms(c)
DAV:   1    -0.628266721474E+03   -0.25212E-03   -0.11751E-01 21720   0.692E-01    0.218E-01
DAV:   2    -0.628266439640E+03    0.28183E-03   -0.59550E-03 30900   0.206E-01    0.201E-01
DAV:   3    -0.628266369398E+03    0.70242E-04   -0.81650E-04 26340   0.771E-02
 120 F= -.62826637E+03 E0= -.62826637E+03  d E =0.373691E-04  mag=    20.0000
       N       E                     dE             d eps       ncg     rms          rms(c)
DAV:   1    -0.628266574263E+03   -0.13462E-03   -0.25453E-02 21528   0.303E-01    0.701E-02
DAV:   2    -0.628266689851E+03   -0.11559E-03   -0.16703E-03 29856   0.928E-02    0.948E-02
DAV:   3    -0.628266659333E+03    0.30518E-04   -0.10025E-04 12660   0.298E-02
 121 F= -.62826666E+03 E0= -.62826666E+03  d E =-.289934E-03  mag=    20.0000
       N       E                     dE             d eps       ncg     rms          rms(c)
DAV:   1    -0.628266452738E+03    0.23711E-03   -0.19798E-02 21528   0.279E-01    0.602E-02
DAV:   2    -0.628266492175E+03   -0.39437E-04   -0.73788E-04 22956   0.582E-02
 122 F= -.62826649E+03 E0= -.62826649E+03  d E =0.167158E-03  mag=    20.0000
       N       E                     dE             d eps       ncg     rms          rms(c)
DAV:   1    -0.628266499909E+03   -0.47171E-04   -0.17548E-02 21528   0.256E-01    0.106E-01
DAV:   2    -0.628266522570E+03   -0.22662E-04   -0.10189E-03 28476   0.822E-02    0.886E-02
DAV:   3    -0.628266510702E+03    0.11869E-04   -0.12873E-04 14460   0.327E-02
 123 F= -.62826651E+03 E0= -.62826651E+03  d E =-.185266E-04  mag=    20.0000
       N       E                     dE             d eps       ncg     rms          rms(c)
DAV:   1    -0.628267114384E+03   -0.59181E-03   -0.51397E-02 21528   0.460E-01    0.216E-01
DAV:   2    -0.628266723840E+03    0.39054E-03   -0.38547E-03 30924   0.151E-01    0.148E-01
DAV:   3    -0.628266648037E+03    0.75804E-04   -0.69698E-04 24936   0.742E-02
 124 F= -.62826665E+03 E0= -.62826665E+03  d E =-.137335E-03  mag=    20.0000
       N       E                     dE             d eps       ncg     rms          rms(c)
DAV:   1    -0.628266989526E+03   -0.26569E-03   -0.68905E-02 21528   0.532E-01    0.158E-01
DAV:   2    -0.628266941230E+03    0.48296E-04   -0.30761E-03 31152   0.143E-01    0.135E-01
DAV:   3    -0.628266893073E+03    0.48157E-04   -0.25376E-04 17964   0.518E-02
 125 F= -.62826689E+03 E0= -.62826689E+03  d E =-.245037E-03  mag=    20.0000
       N       E                     dE             d eps       ncg     rms          rms(c)
DAV:   1    -0.628266823007E+03    0.11822E-03   -0.76197E-02 21504   0.542E-01    0.149E-01
DAV:   2    -0.628266964663E+03   -0.14166E-03   -0.23582E-03 28584   0.113E-01    0.993E-02
DAV:   3    -0.628266948879E+03    0.15784E-04   -0.17628E-04 16680   0.426E-02
 126 F= -.62826695E+03 E0= -.62826695E+03  d E =-.558058E-04  mag=    20.0000
       N       E                     dE             d eps       ncg     rms          rms(c)
DAV:   1    -0.628267031050E+03   -0.66387E-04   -0.72916E-03 21552   0.176E-01    0.653E-02
DAV:   2    -0.628266988951E+03    0.42099E-04   -0.34204E-04 16392   0.544E-02
 127 F= -.62826699E+03 E0= -.62826699E+03  d E =-.400719E-04  mag=    20.0000
       N       E                     dE             d eps       ncg     rms          rms(c)
DAV:   1    -0.628267314373E+03   -0.28332E-03   -0.14857E-02 22116   0.267E-01    0.144E-01
DAV:   2    -0.628267070005E+03    0.24437E-03   -0.13974E-03 30732   0.922E-02    0.107E-01
DAV:   3    -0.628267015949E+03    0.54056E-04   -0.22628E-04 18336   0.479E-02
 128 F= -.62826702E+03 E0= -.62826702E+03  d E =-.269980E-04  mag=    20.0000
       N       E                     dE             d eps       ncg     rms          rms(c)
DAV:   1    -0.628266952680E+03    0.11732E-03   -0.58388E-02 21528   0.473E-01    0.730E-02
DAV:   2    -0.628267102383E+03   -0.14970E-03   -0.19992E-03 27924   0.109E-01    0.900E-02
DAV:   3    -0.628267090964E+03    0.11419E-04   -0.14523E-04 14340   0.312E-02
 129 F= -.62826709E+03 E0= -.62826709E+03  d E =-.750155E-04  mag=    20.0000
       N       E                     dE             d eps       ncg     rms          rms(c)
DAV:   1    -0.628267215454E+03   -0.11307E-03   -0.61846E-02 21528   0.480E-01    0.131E-01
DAV:   2    -0.628267211341E+03    0.41131E-05   -0.36752E-03 30072   0.148E-01    0.140E-01
DAV:   3    -0.628267157357E+03    0.53984E-04   -0.50642E-04 23028   0.533E-02
 130 F= -.62826716E+03 E0= -.62826716E+03  d E =-.663926E-04  mag=    20.0000
       N       E                     dE             d eps       ncg     rms          rms(c)
DAV:   1    -0.628267246131E+03   -0.34789E-04   -0.99690E-03 21528   0.195E-01    0.675E-02
DAV:   2    -0.628267305790E+03   -0.59660E-04   -0.98498E-04 28140   0.696E-02
 131 F= -.62826731E+03 E0= -.62826731E+03  d E =-.148433E-03  mag=    20.0000
       N       E                     dE             d eps       ncg     rms          rms(c)
DAV:   1    -0.628267558206E+03   -0.31208E-03   -0.39329E-02 21708   0.406E-01    0.129E-01
DAV:   2    -0.628267409455E+03    0.14875E-03   -0.17190E-03 29904   0.105E-01    0.844E-02
DAV:   3    -0.628267376293E+03    0.33161E-04   -0.23005E-04 18120   0.507E-02
 132 F= -.62826738E+03 E0= -.62826738E+03  d E =-.705030E-04  mag=    20.0000
       N       E                     dE             d eps       ncg     rms          rms(c)
DAV:   1    -0.628267440709E+03   -0.31254E-04   -0.59525E-03 21648   0.151E-01    0.302E-02
DAV:   2    -0.628267445739E+03   -0.50305E-05   -0.19095E-04 13560   0.385E-02
 133 F= -.62826745E+03 E0= -.62826745E+03  d E =-.694459E-04  mag=    20.0000
       N       E                     dE             d eps       ncg     rms          rms(c)
DAV:   1    -0.628267445641E+03   -0.49317E-05   -0.27857E-04 17136   0.333E-02    0.184E-02
DAV:   2    -0.628267443392E+03    0.22485E-05   -0.19558E-05 11868   0.149E-02
 134 F= -.62826744E+03 E0= -.62826744E+03  d E =0.234727E-05  mag=    20.0000
       N       E                     dE             d eps       ncg     rms          rms(c)
DAV:   1    -0.628267504835E+03   -0.59194E-04   -0.37494E-02 21504   0.385E-01    0.795E-02
DAV:   2    -0.628267529741E+03   -0.24906E-04   -0.13393E-03 27348   0.872E-02    0.613E-02
DAV:   3    -0.628267517116E+03    0.12625E-04   -0.12526E-04 14388   0.336E-02
 135 F= -.62826752E+03 E0= -.62826752E+03  d E =-.737243E-04  mag=    20.0000
       N       E                     dE             d eps       ncg     rms          rms(c)
DAV:   1    -0.628267583743E+03   -0.54002E-04   -0.93542E-03 21216   0.188E-01    0.343E-02
DAV:   2    -0.628267609508E+03   -0.25765E-04   -0.39836E-04 18504   0.492E-02
 136 F= -.62826761E+03 E0= -.62826761E+03  d E =-.923913E-04  mag=    20.0000
       N       E                     dE             d eps       ncg     rms          rms(c)
DAV:   1    -0.628267644118E+03   -0.60375E-04   -0.50642E-03 21480   0.140E-01    0.400E-02
DAV:   2    -0.628267647412E+03   -0.32937E-05   -0.15749E-04 13884   0.338E-02
 137 F= -.62826765E+03 E0= -.62826765E+03  d E =-.379044E-04  mag=    20.0000
       N       E                     dE             d eps       ncg     rms          rms(c)
DAV:   1    -0.628267636438E+03    0.76803E-05   -0.71297E-04 19416   0.526E-02    0.240E-02
DAV:   2    -0.628267638525E+03   -0.20873E-05   -0.36066E-05 11796   0.172E-02
 138 F= -.62826764E+03 E0= -.62826764E+03  d E =0.888676E-05  mag=    20.0000
       N       E                     dE             d eps       ncg     rms          rms(c)
DAV:   1    -0.628267654338E+03   -0.17900E-04   -0.21389E-02 21504   0.285E-01    0.511E-02
DAV:   2    -0.628267714205E+03   -0.59868E-04   -0.73792E-04 24276   0.643E-02
 139 F= -.62826771E+03 E0= -.62826771E+03  d E =-.756802E-04  mag=    20.0000
       N       E                     dE             d eps       ncg     rms          rms(c)
DAV:   1    -0.628267756818E+03   -0.10248E-03   -0.52302E-03 21636   0.142E-01    0.359E-02
DAV:   2    -0.628267758931E+03   -0.21131E-05   -0.29457E-04 16656   0.436E-02
 140 F= -.62826776E+03 E0= -.62826776E+03  d E =-.447259E-04  mag=    20.0000
       N       E                     dE             d eps       ncg     rms          rms(c)
DAV:   1    -0.628267783411E+03   -0.26593E-04   -0.82470E-03 21528   0.179E-01    0.550E-02
DAV:   2    -0.628267786470E+03   -0.30589E-05   -0.24463E-04 15600   0.397E-02
 141 F= -.62826779E+03 E0= -.62826779E+03  d E =-.275386E-04  mag=    20.0000
       N       E                     dE             d eps       ncg     rms          rms(c)
DAV:   1    -0.628267800156E+03   -0.16745E-04   -0.82935E-03 21144   0.172E-01    0.507E-02
DAV:   2    -0.628267837674E+03   -0.37517E-04   -0.19557E-04 14340   0.324E-02
 142 F= -.62826784E+03 E0= -.62826784E+03  d E =-.512037E-04  mag=    20.0000
       N       E                     dE             d eps       ncg     rms          rms(c)
DAV:   1    -0.628267867827E+03   -0.67671E-04   -0.96122E-03 21348   0.191E-01    0.367E-02
DAV:   2    -0.628267889262E+03   -0.21435E-04   -0.31173E-04 17652   0.473E-02
 143 F= -.62826789E+03 E0= -.62826789E+03  d E =-.515888E-04  mag=    20.0000
       N       E                     dE             d eps       ncg     rms          rms(c)
DAV:   1    -0.628267927107E+03   -0.59279E-04   -0.15101E-03 22428   0.796E-02    0.526E-02
DAV:   2    -0.628267897520E+03    0.29587E-04   -0.12346E-04 12240   0.330E-02
 144 F= -.62826790E+03 E0= -.62826790E+03  d E =-.825762E-05  mag=    20.0000
       N       E                     dE             d eps       ncg     rms          rms(c)
DAV:   1    -0.628267839254E+03    0.87852E-04   -0.55978E-02 21504   0.471E-01    0.149E-01
DAV:   2    -0.628267708604E+03    0.13065E-03   -0.29871E-03 30432   0.139E-01    0.127E-01
DAV:   3    -0.628267664486E+03    0.44118E-04   -0.40092E-04 21492   0.554E-02
 145 F= -.62826766E+03 E0= -.62826766E+03  d E =0.233034E-03  mag=    20.0000
       N       E                     dE             d eps       ncg     rms          rms(c)
DAV:   1    -0.628268153985E+03   -0.44538E-03   -0.91380E-02 21732   0.610E-01    0.173E-01
DAV:   2    -0.628268016511E+03    0.13747E-03   -0.50157E-03 30900   0.175E-01    0.159E-01
DAV:   3    -0.628267939093E+03    0.77418E-04   -0.56439E-04 23700   0.651E-02
 146 F= -.62826794E+03 E0= -.62826794E+03  d E =-.274607E-03  mag=    20.0000
       N       E                     dE             d eps       ncg     rms          rms(c)
DAV:   1    -0.628267949566E+03    0.66945E-04   -0.68029E-03 21432   0.166E-01    0.525E-02
DAV:   2    -0.628267978814E+03   -0.29249E-04   -0.43705E-04 21972   0.513E-02
 147 F= -.62826798E+03 E0= -.62826798E+03  d E =-.397219E-04  mag=    20.0000
       N       E                     dE             d eps       ncg     rms          rms(c)
DAV:   1    -0.628268037429E+03   -0.87863E-04   -0.51849E-03 22272   0.149E-01    0.460E-02
DAV:   2    -0.628268013583E+03    0.23846E-04   -0.19426E-04 14364   0.394E-02
 148 F= -.62826801E+03 E0= -.62826801E+03  d E =-.347684E-04  mag=    20.0000
       N       E                     dE             d eps       ncg     rms          rms(c)
DAV:   1    -0.628268019392E+03    0.18037E-04   -0.39588E-03 20760   0.124E-01    0.341E-02
DAV:   2    -0.628268019382E+03    0.97862E-08   -0.12486E-04 14676   0.354E-02
 149 F= -.62826802E+03 E0= -.62826802E+03  d E =-.579929E-05  mag=    20.0000
       N       E                     dE             d eps       ncg     rms          rms(c)
DAV:   1    -0.628267979840E+03    0.39552E-04   -0.27810E-02 21504   0.319E-01    0.698E-02
DAV:   2    -0.628268064041E+03   -0.84201E-04   -0.17974E-03 29688   0.110E-01    0.109E-01
DAV:   3    -0.628268035852E+03    0.28189E-04   -0.17775E-04 14616   0.323E-02
 150 F= -.62826804E+03 E0= -.62826804E+03  d E =-.164700E-04  mag=    20.0000
       N       E                     dE             d eps       ncg     rms          rms(c)
DAV:   1    -0.628268136061E+03   -0.72020E-04   -0.54784E-03 21624   0.145E-01    0.664E-02
DAV:   2    -0.628268155964E+03   -0.19903E-04   -0.10914E-03 28332   0.746E-02    0.698E-02
DAV:   3    -0.628268107475E+03    0.48489E-04   -0.12493E-04 14112   0.351E-02
 151 F= -.62826811E+03 E0= -.62826811E+03  d E =-.716227E-04  mag=    20.0000
       N       E                     dE             d eps       ncg     rms          rms(c)
DAV:   1    -0.628268173605E+03   -0.17641E-04   -0.21873E-02 21528   0.296E-01    0.793E-02
DAV:   2    -0.628268149752E+03    0.23853E-04   -0.87428E-04 26028   0.793E-02
 152 F= -.62826815E+03 E0= -.62826815E+03  d E =-.422772E-04  mag=    20.0000
       N       E                     dE             d eps       ncg     rms          rms(c)
DAV:   1    -0.628268185644E+03   -0.12039E-04   -0.52496E-03 21636   0.143E-01    0.337E-02
DAV:   2    -0.628268192152E+03   -0.65079E-05   -0.23354E-04 16560   0.431E-02
 153 F= -.62826819E+03 E0= -.62826819E+03  d E =-.423995E-04  mag=    20.0000
       N       E                     dE             d eps       ncg     rms          rms(c)
DAV:   1    -0.628268184824E+03    0.81959E-06   -0.23120E-04 14172   0.345E-02    0.226E-02
DAV:   2    -0.628268184414E+03    0.41011E-06   -0.25715E-05 11052   0.167E-02
 154 F= -.62826818E+03 E0= -.62826818E+03  d E =0.773757E-05  mag=    20.0000
       N       E                     dE             d eps       ncg     rms          rms(c)
DAV:   1    -0.628268269503E+03   -0.84679E-04   -0.39817E-02 21564   0.399E-01    0.754E-02
DAV:   2    -0.628268291536E+03   -0.22033E-04   -0.13054E-03 25812   0.823E-02    0.489E-02
DAV:   3    -0.628268281327E+03    0.10208E-04   -0.93482E-05 13848   0.314E-02
 155 F= -.62826828E+03 E0= -.62826828E+03  d E =-.969134E-04  mag=    20.0000
       N       E                     dE             d eps       ncg     rms          rms(c)
DAV:   1    -0.628268321738E+03   -0.30202E-04   -0.14689E-02 21504   0.235E-01    0.329E-02
DAV:   2    -0.628268349255E+03   -0.27517E-04   -0.41664E-04 17352   0.487E-02
 156 F= -.62826835E+03 E0= -.62826835E+03  d E =-.679279E-04  mag=    20.0000
