       N       E                     dE             d eps       ncg     rms          rms(c)
DAV:   1     0.550713430881E+04    0.55071E+04   -0.19757E+05 10752   0.125E+03
DAV:   2     0.483786440316E+03   -0.50233E+04   -0.46227E+04 11136   0.348E+02
DAV:   3    -0.723104411224E+03   -0.12069E+04   -0.11684E+04 12708   0.178E+02
DAV:   4    -0.824916473393E+03   -0.10181E+03   -0.10037E+03 16092   0.589E+01
DAV:   5    -0.828685329011E+03   -0.37689E+01   -0.37262E+01 16980   0.127E+01
DAV:   6    -0.828845599554E+03   -0.16027E+00   -0.15913E+00 17028   0.234E+00
DAV:   7    -0.828853711896E+03   -0.81123E-02   -0.80852E-02 17028   0.531E-01
DAV:   8    -0.828854238992E+03   -0.52710E-03   -0.52622E-03 14088   0.119E-01
DAV:   9    -0.828854276787E+03   -0.37795E-04   -0.37736E-04 10008   0.362E-02
DAV:  10    -0.828854280903E+03   -0.41156E-05   -0.41011E-05  8880   0.168E-02
DAV:  11    -0.828854282448E+03   -0.15453E-05   -0.15386E-05  8244   0.116E-02
DAV:  12    -0.828854283340E+03   -0.89240E-06   -0.88946E-06  8088   0.869E-03    0.114E+02
DAV:  13    -0.628571335001E+03    0.20028E+03   -0.12678E+03 16008   0.833E+01    0.856E+01
DAV:  14    -0.736741676642E+03   -0.10817E+03   -0.22366E+03 18024   0.124E+02    0.126E+02
DAV:  15    -0.664262723904E+03    0.72479E+02   -0.77647E+02 16380   0.814E+01    0.529E+01
DAV:  16    -0.659129784013E+03    0.51329E+01   -0.12108E+02 16416   0.589E+01    0.529E+01
DAV:  17    -0.651268334761E+03    0.78614E+01   -0.73798E+01 15732   0.173E+01    0.458E+01
DAV:  18    -0.653438482315E+03   -0.21701E+01   -0.46464E+01 15312   0.202E+01    0.310E+01
DAV:  19    -0.631901425032E+03    0.21537E+02   -0.54123E+01 16320   0.227E+01    0.215E+01
DAV:  20    -0.631531073384E+03    0.37035E+00   -0.17181E+01 15588   0.672E+00    0.187E+01
DAV:  21    -0.629076579005E+03    0.24545E+01   -0.18355E+00 16584   0.622E+00    0.137E+01
DAV:  22    -0.625280386787E+03    0.37962E+01   -0.29828E+00 18372   0.101E+01    0.775E+00
DAV:  23    -0.624214478637E+03    0.10659E+01   -0.43264E+00 16092   0.545E+00    0.589E+00
DAV:  24    -0.624365447555E+03   -0.15097E+00   -0.12872E+00 13212   0.215E+00    0.499E+00
DAV:  25    -0.624252101853E+03    0.11335E+00   -0.81051E-02 16164   0.729E-01    0.490E+00
DAV:  26    -0.623929548186E+03    0.32255E+00   -0.84575E-02 17148   0.139E+00    0.438E+00
DAV:  27    -0.623192992971E+03    0.73656E+00   -0.41637E-01 17784   0.369E+00    0.425E+00
DAV:  28    -0.622872513387E+03    0.32048E+00   -0.58140E-01 16728   0.232E+00    0.403E+00
DAV:  29    -0.622883643971E+03   -0.11131E-01   -0.22585E-01 13608   0.928E-01    0.302E+00
DAV:  30    -0.622743093665E+03    0.14055E+00   -0.50255E-02 18024   0.131E+00    0.340E+00
DAV:  31    -0.622622781614E+03    0.12031E+00   -0.11116E-01 18228   0.115E+00    0.317E+00
DAV:  32    -0.622562079604E+03    0.60702E-01   -0.90687E-02 16296   0.826E-01    0.266E+00
DAV:  33    -0.622561900693E+03    0.17891E-03   -0.30933E-02 14292   0.378E-01    0.203E+00
DAV:  34    -0.622529680860E+03    0.32220E-01   -0.37334E-02 18060   0.993E-01    0.245E+00
DAV:  35    -0.622530318242E+03   -0.63738E-03   -0.16877E-02 14004   0.208E-01    0.240E+00
DAV:  36    -0.622530450261E+03   -0.13202E-03   -0.92266E-04 14004   0.750E-02    0.245E+00
DAV:  37    -0.622530555811E+03   -0.10555E-03   -0.10143E-03 13740   0.999E-02    0.249E+00
DAV:  38    -0.622523027836E+03    0.75280E-02   -0.33586E-03 15120   0.136E-01    0.219E+00
DAV:  39    -0.622517050656E+03    0.59772E-02   -0.10444E-02 15576   0.259E-01    0.185E+00
DAV:  40    -0.622517347542E+03   -0.29689E-03   -0.23505E-03 11868   0.883E-02    0.186E+00
DAV:  41    -0.622517493628E+03   -0.14609E-03   -0.20699E-04  8748   0.447E-02    0.193E+00
DAV:  42    -0.622517789548E+03   -0.29592E-03   -0.69256E-05  6576   0.275E-02    0.193E+00
DAV:  43    -0.622520162627E+03   -0.23731E-02   -0.27967E-03 14616   0.122E-01    0.205E+00
DAV:  44    -0.622522266695E+03   -0.21041E-02   -0.37394E-03 14928   0.122E-01    0.198E+00
DAV:  45    -0.622553502810E+03   -0.31236E-01   -0.88886E-02 14940   0.614E-01    0.230E+00
DAV:  46    -0.622577801487E+03   -0.24299E-01   -0.34535E-02 16212   0.379E-01    0.253E+00
DAV:  47    -0.622585775142E+03   -0.79737E-02   -0.33943E-03 13980   0.128E-01    0.269E+00
DAV:  48    -0.622597283945E+03   -0.11509E-01   -0.30222E-03 15240   0.106E-01    0.289E+00
DAV:  49    -0.622576731074E+03    0.20553E-01   -0.78460E-03 15288   0.194E-01    0.266E+00
DAV:  50    -0.622652536823E+03   -0.75806E-01   -0.63665E-02 14304   0.511E-01    0.375E+00
DAV:  51    -0.622607677915E+03    0.44859E-01   -0.19214E-02 14544   0.307E-01    0.327E+00
DAV:  52    -0.622609525635E+03   -0.18477E-02   -0.16110E-03 11856   0.801E-02    0.325E+00
DAV:  53    -0.622600935993E+03    0.85896E-02   -0.16963E-03 15012   0.874E-02    0.316E+00
DAV:  54    -0.622590395369E+03    0.10541E-01   -0.32001E-03 14196   0.121E-01    0.302E+00
DAV:  55    -0.622549662210E+03    0.40733E-01   -0.36350E-02 14520   0.402E-01    0.224E+00
DAV:  56    -0.622520187592E+03    0.29475E-01   -0.92540E-02 14328   0.585E-01    0.144E+00
DAV:  57    -0.622520235175E+03   -0.47583E-04   -0.62740E-03 14136   0.167E-01    0.139E+00
DAV:  58    -0.622532748826E+03   -0.12514E-01   -0.68238E-03 15840   0.251E-01    0.189E+00
DAV:  59    -0.622537948521E+03   -0.51997E-02   -0.23713E-03 16236   0.127E-01    0.208E+00
DAV:  60    -0.622537983820E+03   -0.35299E-04   -0.34183E-03 15240   0.126E-01    0.214E+00
DAV:  61    -0.622545287942E+03   -0.73041E-02   -0.16739E-03 14604   0.116E-01    0.243E+00
DAV:  62    -0.622539020347E+03    0.62676E-02   -0.62163E-03 14784   0.162E-01    0.222E+00
DAV:  63    -0.622539000712E+03    0.19635E-04   -0.18122E-02 15132   0.291E-01    0.212E+00
DAV:  64    -0.622535455862E+03    0.35448E-02   -0.34626E-03 14196   0.125E-01    0.194E+00
DAV:  65    -0.622530711331E+03    0.47445E-02   -0.88589E-03 14580   0.207E-01    0.173E+00
DAV:  66    -0.622531305995E+03   -0.59466E-03   -0.17171E-02 15756   0.276E-01    0.158E+00
DAV:  67    -0.622523930905E+03    0.73751E-02   -0.44051E-03 15300   0.152E-01    0.121E+00
DAV:  68    -0.622516402559E+03    0.75283E-02   -0.75154E-03 15696   0.217E-01    0.740E-01
DAV:  69    -0.622515085686E+03    0.13169E-02   -0.15361E-03 15096   0.103E-01    0.631E-01
DAV:  70    -0.622514720738E+03    0.36495E-03   -0.10068E-03 14148   0.715E-02    0.597E-01
DAV:  71    -0.622513336551E+03    0.13842E-02   -0.37555E-04  9216   0.829E-02    0.581E-01
DAV:  72    -0.622512186684E+03    0.11499E-02   -0.19276E-03 14508   0.896E-02    0.568E-01
DAV:  73    -0.622512811621E+03   -0.62494E-03   -0.48817E-03 13620   0.143E-01    0.707E-01
DAV:  74    -0.622512758210E+03    0.53412E-04   -0.74199E-04 12012   0.656E-02
   1 F= -.62251276E+03 E0= -.62247018E+03  d E =-.622513E+03  mag=    19.5641
       N       E                     dE             d eps       ncg     rms          rms(c)
DAV:   1    -0.622773351703E+03   -0.26054E+00   -0.13391E+03 10752   0.702E+01    0.178E+01
DAV:   2    -0.625829214679E+03   -0.30559E+01   -0.83386E+01 16248   0.286E+01    0.206E+01
DAV:   3    -0.625772765890E+03    0.56449E-01   -0.16567E+01 14964   0.862E+00    0.141E+01
DAV:   4    -0.624666779127E+03    0.11060E+01   -0.43648E+00 16272   0.499E+00    0.101E+01
DAV:   5    -0.624636240507E+03    0.30539E-01   -0.29336E+00 13464   0.410E+00    0.513E+00
DAV:   6    -0.624481563231E+03    0.15468E+00   -0.10247E+00 15492   0.308E+00    0.348E+00
DAV:   7    -0.624404143970E+03    0.77419E-01   -0.12419E+00 14652   0.254E+00    0.200E+00
DAV:   8    -0.624414918123E+03   -0.10774E-01   -0.16638E-01 14556   0.131E+00    0.108E+00
DAV:   9    -0.624414521852E+03    0.39627E-03   -0.42721E-02 15420   0.441E-01    0.709E-01
DAV:  10    -0.624414221104E+03    0.30075E-03   -0.86028E-03 15492   0.269E-01    0.520E-01
DAV:  11    -0.624411700940E+03    0.25202E-02   -0.16257E-02 15984   0.283E-01    0.218E-01
DAV:  12    -0.624412256396E+03   -0.55546E-03   -0.46788E-03 14268   0.132E-01    0.162E-01
DAV:  13    -0.624412243451E+03    0.12945E-04   -0.35593E-04  9720   0.605E-02
   2 F= -.62441224E+03 E0= -.62441224E+03  d E =-.189949E+01  mag=    19.7314
       N       E                     dE             d eps       ncg     rms          rms(c)
DAV:   1    -0.628027198204E+03   -0.36149E+01   -0.17151E+02 10752   0.269E+01    0.113E+01
DAV:   2    -0.627254571461E+03    0.77263E+00   -0.13897E+01 15000   0.119E+01    0.130E+01
DAV:   3    -0.627069327005E+03    0.18524E+00   -0.36389E+00 15636   0.406E+00    0.845E+00
DAV:   4    -0.627020313886E+03    0.49013E-01   -0.17040E+00 16104   0.335E+00    0.644E+00
DAV:   5    -0.626889182333E+03    0.13113E+00   -0.54821E-01 15936   0.276E+00    0.341E+00
DAV:   6    -0.626870235975E+03    0.18946E-01   -0.39343E-01 15744   0.137E+00    0.128E+00
DAV:   7    -0.626867139052E+03    0.30969E-02   -0.82572E-02 16296   0.761E-01    0.703E-01
DAV:   8    -0.626863645273E+03    0.34938E-02   -0.18976E-02 15996   0.511E-01    0.448E-01
DAV:   9    -0.626863439499E+03    0.20577E-03   -0.68134E-03 14616   0.205E-01    0.227E-01
DAV:  10    -0.626863411547E+03    0.27952E-04   -0.22051E-03 14700   0.992E-02    0.149E-01
DAV:  11    -0.626863389238E+03    0.22308E-04   -0.91711E-04 13812   0.656E-02
   3 F= -.62686339E+03 E0= -.62686339E+03  d E =-.245115E+01  mag=    19.8267
       N       E                     dE             d eps       ncg     rms          rms(c)
DAV:   1    -0.626719499884E+03    0.14391E+00   -0.82450E+01 10752   0.175E+01    0.536E+00
DAV:   2    -0.627051368685E+03   -0.33187E+00   -0.51144E+00 14760   0.567E+00    0.645E+00
DAV:   3    -0.626981849922E+03    0.69519E-01   -0.46658E-01 14040   0.168E+00    0.424E+00
DAV:   4    -0.626955331042E+03    0.26519E-01   -0.55869E-01 14928   0.156E+00    0.248E+00
DAV:   5    -0.626934524331E+03    0.20807E-01   -0.92467E-02 14292   0.926E-01    0.121E+00
DAV:   6    -0.626926223799E+03    0.83005E-02   -0.83124E-02 15828   0.626E-01    0.691E-01
DAV:   7    -0.626926437658E+03   -0.21386E-03   -0.23457E-02 14748   0.280E-01    0.263E-01
DAV:   8    -0.626926199844E+03    0.23781E-03   -0.20530E-03 16080   0.138E-01    0.152E-01
DAV:   9    -0.626926269747E+03   -0.69903E-04   -0.14248E-03 14472   0.939E-02    0.133E-01
DAV:  10    -0.626926152618E+03    0.11713E-03   -0.34330E-04  9468   0.578E-02    0.777E-02
DAV:  11    -0.626926142101E+03    0.10517E-04   -0.85743E-04 11448   0.550E-02
   4 F= -.62692614E+03 E0= -.62692614E+03  d E =-.627529E-01  mag=    19.8878
       N       E                     dE             d eps       ncg     rms          rms(c)
DAV:   1    -0.626999228057E+03   -0.73075E-01   -0.26592E+00 10824   0.330E+00    0.126E+00
DAV:   2    -0.626993256418E+03    0.59716E-02   -0.21710E-01 14964   0.146E+00    0.145E+00
DAV:   3    -0.626989507574E+03    0.37488E-02   -0.46414E-02 14796   0.497E-01    0.909E-01
DAV:   4    -0.626987963373E+03    0.15442E-02   -0.20485E-02 16224   0.355E-01    0.645E-01
DAV:   5    -0.626986633623E+03    0.13298E-02   -0.64776E-03 15168   0.280E-01    0.340E-01
DAV:   6    -0.626986576838E+03    0.56784E-04   -0.40298E-03 15456   0.138E-01    0.139E-01
DAV:   7    -0.626986565479E+03    0.11359E-04   -0.83719E-04 13584   0.684E-02
   5 F= -.62698657E+03 E0= -.62698657E+03  d E =-.604234E-01  mag=    19.9141
       N       E                     dE             d eps       ncg     rms          rms(c)
DAV:   1    -0.626752976857E+03    0.23360E+00   -0.12806E+02 10752   0.221E+01    0.466E+00
DAV:   2    -0.627050427480E+03   -0.29745E+00   -0.67554E+00 15204   0.703E+00    0.690E+00
DAV:   3    -0.627028941383E+03    0.21486E-01   -0.87191E-01 15036   0.194E+00    0.556E+00
DAV:   4    -0.626962960450E+03    0.65981E-01   -0.14363E-01 15912   0.849E-01    0.496E+00
DAV:   5    -0.626928825082E+03    0.34135E-01   -0.45069E-01 13824   0.134E+00    0.321E+00
DAV:   6    -0.626881682410E+03    0.47143E-01   -0.33117E-01 15936   0.150E+00    0.220E+00
DAV:   7    -0.626875614151E+03    0.60683E-02   -0.14786E-01 14196   0.833E-01    0.152E+00
DAV:   8    -0.626874500936E+03    0.11132E-02   -0.20463E-02 15804   0.355E-01    0.106E+00
DAV:   9    -0.626872715473E+03    0.17855E-02   -0.68278E-03 16200   0.210E-01    0.750E-01
DAV:  10    -0.626870990794E+03    0.17247E-02   -0.55841E-03 15948   0.169E-01    0.505E-01
DAV:  11    -0.626870631218E+03    0.35958E-03   -0.13648E-03 15504   0.871E-02    0.325E-01
DAV:  12    -0.626870146754E+03    0.48446E-03   -0.12206E-03 14844   0.715E-02    0.210E-01
DAV:  13    -0.626870059978E+03    0.86776E-04   -0.39438E-04 10152   0.391E-02
   6 F= -.62687006E+03 E0= -.62687006E+03  d E =0.116506E+00  mag=    19.9483
       N       E                     dE             d eps       ncg     rms          rms(c)
DAV:   1    -0.627219621862E+03   -0.34948E+00   -0.39616E+01 10752   0.119E+01    0.325E+00
DAV:   2    -0.627324900963E+03   -0.10528E+00   -0.24395E+00 15420   0.400E+00    0.435E+00
DAV:   3    -0.627304313726E+03    0.20587E-01   -0.32725E-01 14628   0.127E+00    0.334E+00
DAV:   4    -0.627274926910E+03    0.29387E-01   -0.10136E-01 15216   0.665E-01    0.274E+00
DAV:   5    -0.627266352392E+03    0.85745E-02   -0.19001E-01 13908   0.844E-01    0.141E+00
DAV:   6    -0.627253574817E+03    0.12778E-01   -0.83778E-02 16524   0.789E-01    0.917E-01
DAV:   7    -0.627250389553E+03    0.31853E-02   -0.64336E-02 14112   0.523E-01    0.518E-01
DAV:   8    -0.627250733464E+03   -0.34391E-03   -0.62757E-03 14892   0.231E-01    0.254E-01
DAV:   9    -0.627250696673E+03    0.36791E-04   -0.24213E-03 15948   0.120E-01    0.151E-01
DAV:  10    -0.627250561080E+03    0.13559E-03   -0.76671E-04 13272   0.707E-02    0.118E-01
DAV:  11    -0.627250496910E+03    0.64170E-04   -0.27552E-04  7920   0.445E-02
   7 F= -.62725050E+03 E0= -.62725050E+03  d E =-.380437E+00  mag=    19.9661
       N       E                     dE             d eps       ncg     rms          rms(c)
DAV:   1    -0.626769619585E+03    0.48094E+00   -0.28516E+02 10752   0.337E+01    0.524E+00
DAV:   2    -0.627464501845E+03   -0.69488E+00   -0.87723E+00 13656   0.699E+00    0.389E+00
DAV:   3    -0.627436088913E+03    0.28413E-01   -0.52243E-01 15660   0.186E+00    0.329E+00
DAV:   4    -0.627407952733E+03    0.28136E-01   -0.93499E-02 14220   0.613E-01    0.196E+00
DAV:   5    -0.627381137089E+03    0.26816E-01   -0.56813E-02 14172   0.600E-01    0.821E-01
DAV:   6    -0.627379922128E+03    0.12150E-02   -0.29425E-02 15300   0.436E-01    0.363E-01
DAV:   7    -0.627379858438E+03    0.63689E-04   -0.11440E-02 16104   0.253E-01    0.174E-01
DAV:   8    -0.627379770726E+03    0.87713E-04   -0.15821E-03 14640   0.932E-02    0.109E-01
DAV:   9    -0.627379743234E+03    0.27492E-04   -0.86395E-04 12924   0.772E-02
   8 F= -.62737974E+03 E0= -.62737974E+03  d E =-.129246E+00  mag=    19.9766
       N       E                     dE             d eps       ncg     rms          rms(c)
DAV:   1    -0.627402913649E+03   -0.23143E-01   -0.47417E+01 10752   0.137E+01    0.320E+00
DAV:   2    -0.627457104668E+03   -0.54191E-01   -0.16522E+00 14892   0.375E+00    0.300E+00
DAV:   3    -0.627448939719E+03    0.81649E-02   -0.22635E-01 16020   0.145E+00    0.222E+00
DAV:   4    -0.627432536763E+03    0.16403E-01   -0.79011E-02 15924   0.656E-01    0.148E+00
DAV:   5    -0.627425532333E+03    0.70044E-02   -0.24918E-02 14592   0.597E-01    0.492E-01
DAV:   6    -0.627425417450E+03    0.11488E-03   -0.19252E-02 15564   0.383E-01    0.380E-01
DAV:   7    -0.627425166023E+03    0.25143E-03   -0.45713E-03 15612   0.167E-01    0.190E-01
DAV:   8    -0.627425115660E+03    0.50363E-04   -0.93796E-04 14592   0.115E-01
   9 F= -.62742512E+03 E0= -.62742512E+03  d E =-.453724E-01  mag=    19.9830
       N       E                     dE             d eps       ncg     rms          rms(c)
DAV:   1    -0.627462445464E+03   -0.37279E-01   -0.12879E+01 10752   0.720E+00    0.166E+00
DAV:   2    -0.627470867761E+03   -0.84223E-02   -0.47655E-01 15528   0.181E+00    0.147E+00
DAV:   3    -0.627466820600E+03    0.40472E-02   -0.41938E-02 15468   0.658E-01    0.886E-01
DAV:   4    -0.627464417329E+03    0.24033E-02   -0.11012E-02 15888   0.235E-01    0.473E-01
DAV:   5    -0.627463532232E+03    0.88510E-03   -0.50949E-03 15120   0.180E-01    0.190E-01
DAV:   6    -0.627463476658E+03    0.55574E-04   -0.17899E-03 16248   0.151E-01    0.140E-01
DAV:   7    -0.627463483430E+03   -0.67729E-05   -0.31635E-04  8904   0.782E-02
  10 F= -.62746348E+03 E0= -.62746348E+03  d E =-.383678E-01  mag=    19.9870
       N       E                     dE             d eps       ncg     rms          rms(c)
DAV:   1    -0.627473013941E+03   -0.95373E-02   -0.91625E-01 10776   0.191E+00    0.613E-01
DAV:   2    -0.627473071836E+03   -0.57895E-04   -0.35452E-02 14556   0.467E-01    0.400E-01
DAV:   3    -0.627473020237E+03    0.51599E-04   -0.44340E-03 15108   0.221E-01    0.246E-01
DAV:   4    -0.627472847785E+03    0.17245E-03   -0.11830E-03 13980   0.763E-02    0.112E-01
DAV:   5    -0.627472777102E+03    0.70683E-04   -0.21579E-04  8076   0.466E-02
  11 F= -.62747278E+03 E0= -.62747278E+03  d E =-.929367E-02  mag=    19.9893
       N       E                     dE             d eps       ncg     rms          rms(c)
DAV:   1    -0.627433001718E+03    0.39846E-01   -0.30200E+01 10752   0.109E+01    0.147E+00
DAV:   2    -0.627512131544E+03   -0.79130E-01   -0.81589E-01 12708   0.194E+00    0.103E+00
DAV:   3    -0.627511967257E+03    0.16429E-03   -0.35581E-02 14892   0.446E-01    0.470E-01
DAV:   4    -0.627509758524E+03    0.22087E-02   -0.88364E-03 15108   0.240E-01    0.346E-01
DAV:   5    -0.627509181711E+03    0.57681E-03   -0.49364E-03 15432   0.171E-01    0.117E-01
DAV:   6    -0.627509261513E+03   -0.79801E-04   -0.13732E-03 15024   0.939E-02    0.108E-01
DAV:   7    -0.627509257119E+03    0.43934E-05   -0.16054E-04  6996   0.347E-02
  12 F= -.62750926E+03 E0= -.62750926E+03  d E =-.364800E-01  mag=    19.9917
       N       E                     dE             d eps       ncg     rms          rms(c)
DAV:   1    -0.627503964376E+03    0.52971E-02   -0.25268E+00 10752   0.317E+00    0.941E-01
DAV:   2    -0.627507824107E+03   -0.38597E-02   -0.13154E-01 15048   0.892E-01    0.919E-01
DAV:   3    -0.627505494413E+03    0.23297E-02   -0.15501E-02 15216   0.344E-01    0.446E-01
DAV:   4    -0.627505050525E+03    0.44389E-03   -0.39051E-03 15852   0.153E-01    0.357E-01
DAV:   5    -0.627504955845E+03    0.94680E-04   -0.87994E-04 13476   0.728E-02
  13 F= -.62750496E+03 E0= -.62750496E+03  d E =0.430127E-02  mag=    19.9932
       N       E                     dE             d eps       ncg     rms          rms(c)
DAV:   1    -0.627508561374E+03   -0.35108E-02   -0.46789E+00 10752   0.428E+00    0.538E-01
DAV:   2    -0.627519861689E+03   -0.11300E-01   -0.12338E-01 12648   0.752E-01    0.318E-01
DAV:   3    -0.627520011072E+03   -0.14938E-03   -0.65754E-03 15792   0.190E-01    0.187E-01
DAV:   4    -0.627519753369E+03    0.25770E-03   -0.94959E-04 14016   0.702E-02    0.115E-01
DAV:   5    -0.627519571569E+03    0.18180E-03   -0.50182E-04 11736   0.657E-02    0.646E-02
DAV:   6    -0.627519570808E+03    0.76053E-06   -0.25702E-04  8196   0.451E-02
  14 F= -.62751957E+03 E0= -.62751957E+03  d E =-.146150E-01  mag=    19.9945
       N       E                     dE             d eps       ncg     rms          rms(c)
DAV:   1    -0.627524574577E+03   -0.50030E-02   -0.16371E+00 10752   0.253E+00    0.369E-01
DAV:   2    -0.627527911467E+03   -0.33369E-02   -0.46618E-02 13332   0.488E-01    0.282E-01
DAV:   3    -0.627527823797E+03    0.87670E-04   -0.26262E-03 15168   0.143E-01    0.177E-01
DAV:   4    -0.627527693251E+03    0.13055E-03   -0.41165E-04 10248   0.477E-02    0.917E-02
DAV:   5    -0.627527629504E+03    0.63748E-04   -0.23327E-04  7332   0.401E-02
  15 F= -.62752763E+03 E0= -.62752763E+03  d E =-.805870E-02  mag=    19.9955
       N       E                     dE             d eps       ncg     rms          rms(c)
DAV:   1    -0.627476455770E+03    0.51237E-01   -0.31672E+01 10752   0.111E+01    0.126E+00
DAV:   2    -0.627560530454E+03   -0.84075E-01   -0.82701E-01 12168   0.192E+00    0.788E-01
DAV:   3    -0.627561326027E+03   -0.79557E-03   -0.31861E-02 15180   0.378E-01    0.385E-01
DAV:   4    -0.627559329108E+03    0.19969E-02   -0.47418E-03 15540   0.190E-01    0.291E-01
DAV:   5    -0.627558699157E+03    0.62995E-03   -0.43876E-03 13128   0.153E-01    0.134E-01
DAV:   6    -0.627558774905E+03   -0.75748E-04   -0.10597E-03 13176   0.723E-02    0.702E-02
DAV:   7    -0.627558760911E+03    0.13994E-04   -0.22182E-04  6936   0.373E-02
  16 F= -.62755876E+03 E0= -.62755876E+03  d E =-.311314E-01  mag=    19.9965
       N       E                     dE             d eps       ncg     rms          rms(c)
DAV:   1    -0.627380335094E+03    0.17844E+00   -0.54466E+01 10752   0.146E+01    0.159E+00
DAV:   2    -0.627520034673E+03   -0.13970E+00   -0.14149E+00 12204   0.253E+00    0.110E+00
DAV:   3    -0.627521312304E+03   -0.12776E-02   -0.54924E-02 15492   0.518E-01    0.627E-01
DAV:   4    -0.627518296816E+03    0.30155E-02   -0.61302E-03 15888   0.221E-01    0.475E-01
DAV:   5    -0.627516261806E+03    0.20350E-02   -0.66698E-03 12816   0.193E-01    0.199E-01
DAV:   6    -0.627516369546E+03   -0.10774E-03   -0.21290E-03 15300   0.121E-01    0.855E-02
DAV:   7    -0.627516384075E+03   -0.14529E-04   -0.61846E-04 10692   0.533E-02
  17 F= -.62751638E+03 E0= -.62751638E+03  d E =0.423768E-01  mag=    19.9973
       N       E                     dE             d eps       ncg     rms          rms(c)
DAV:   1    -0.627520820088E+03   -0.44505E-02   -0.38607E+00 10752   0.388E+00    0.514E-01
DAV:   2    -0.627529259472E+03   -0.84394E-02   -0.10583E-01 12984   0.722E-01    0.389E-01
DAV:   3    -0.627529067804E+03    0.19167E-03   -0.53197E-03 15072   0.199E-01    0.255E-01
DAV:   4    -0.627528796392E+03    0.27141E-03   -0.79906E-04 12876   0.642E-02    0.139E-01
DAV:   5    -0.627528622173E+03    0.17422E-03   -0.52400E-04 11232   0.544E-02    0.472E-02
DAV:   6    -0.627528623768E+03   -0.15954E-05   -0.11740E-04  6432   0.349E-02
  18 F= -.62752862E+03 E0= -.62752862E+03  d E =-.122397E-01  mag=    19.9979
       N       E                     dE             d eps       ncg     rms          rms(c)
DAV:   1    -0.627532235625E+03   -0.36135E-02   -0.67750E-01 10752   0.162E+00    0.323E-01
DAV:   2    -0.627533646695E+03   -0.14111E-02   -0.19699E-02 12804   0.323E-01    0.201E-01
DAV:   3    -0.627533722960E+03   -0.76266E-04   -0.16546E-03 15348   0.113E-01    0.166E-01
DAV:   4    -0.627533666622E+03    0.56339E-04   -0.31767E-04  9780   0.384E-02
  19 F= -.62753367E+03 E0= -.62753367E+03  d E =-.504285E-02  mag=    19.9982
       N       E                     dE             d eps       ncg     rms          rms(c)
DAV:   1    -0.627532377277E+03    0.13457E-02   -0.34145E-02 10776   0.368E-01    0.674E-02
DAV:   2    -0.627532485733E+03   -0.10846E-03   -0.11665E-03 12732   0.722E-02    0.453E-02
DAV:   3    -0.627532485383E+03    0.35001E-06   -0.38193E-05  6420   0.167E-02
  20 F= -.62753249E+03 E0= -.62753249E+03  d E =0.118124E-02  mag=    19.9984
       N       E                     dE             d eps       ncg     rms          rms(c)
DAV:   1    -0.627533325932E+03   -0.84020E-03   -0.35491E-02 10752   0.376E-01    0.880E-02
DAV:   2    -0.627533312209E+03    0.13723E-04   -0.11913E-03 12588   0.829E-02    0.561E-02
DAV:   3    -0.627533298851E+03    0.13358E-04   -0.87683E-05  6780   0.337E-02
  21 F= -.62753330E+03 E0= -.62753330E+03  d E =-.813468E-03  mag=    19.9985
       N       E                     dE             d eps       ncg     rms          rms(c)
DAV:   1    -0.627536863159E+03   -0.35509E-02   -0.79929E-01 10752   0.177E+00    0.273E-01
DAV:   2    -0.627538363439E+03   -0.15003E-02   -0.22841E-02 13224   0.327E-01    0.163E-01
DAV:   3    -0.627538315991E+03    0.47448E-04   -0.12753E-03 14712   0.971E-02    0.949E-02
DAV:   4    -0.627538265457E+03    0.50535E-04   -0.15936E-04  7128   0.363E-02
  22 F= -.62753827E+03 E0= -.62753827E+03  d E =-.496661E-02  mag=    19.9987
       N       E                     dE             d eps       ncg     rms          rms(c)
DAV:   1    -0.627529528927E+03    0.87871E-02   -0.98400E+00 10776   0.617E+00    0.683E-01
DAV:   2    -0.627555416022E+03   -0.25887E-01   -0.24953E-01 11856   0.104E+00    0.382E-01
DAV:   3    -0.627555909849E+03   -0.49383E-03   -0.95259E-03 15660   0.190E-01    0.223E-01
DAV:   4    -0.627555444184E+03    0.46567E-03   -0.10292E-03 13992   0.754E-02    0.141E-01
DAV:   5    -0.627555216053E+03    0.22813E-03   -0.10375E-03 12504   0.741E-02    0.487E-02
DAV:   6    -0.627555237132E+03   -0.21079E-04   -0.26465E-04  8052   0.393E-02
  23 F= -.62755524E+03 E0= -.62755524E+03  d E =-.169717E-01  mag=    19.9990
       N       E                     dE             d eps       ncg     rms          rms(c)
DAV:   1    -0.627551782501E+03    0.34336E-02   -0.26751E-01 10752   0.102E+00    0.101E-01
DAV:   2    -0.627552449893E+03   -0.66739E-03   -0.67017E-03 12060   0.172E-01    0.689E-02
DAV:   3    -0.627552443006E+03    0.68870E-05   -0.17678E-04  7980   0.313E-02
  24 F= -.62755244E+03 E0= -.62755244E+03  d E =0.279413E-02  mag=    19.9990
       N       E                     dE             d eps       ncg     rms          rms(c)
DAV:   1    -0.627535075905E+03    0.17374E-01   -0.33002E+00 10752   0.358E+00    0.530E-01
DAV:   2    -0.627543457278E+03   -0.83814E-02   -0.93849E-02 13560   0.684E-01    0.462E-01
DAV:   3    -0.627543249615E+03    0.20766E-03   -0.57374E-03 14856   0.206E-01    0.258E-01
DAV:   4    -0.627543045282E+03    0.20433E-03   -0.78637E-04 12708   0.630E-02    0.184E-01
DAV:   5    -0.627542900100E+03    0.14518E-03   -0.41125E-04 10644   0.538E-02    0.707E-02
DAV:   6    -0.627542898582E+03    0.15173E-05   -0.19916E-04  7368   0.434E-02
  25 F= -.62754290E+03 E0= -.62754290E+03  d E =0.954442E-02  mag=    19.9992
       N       E                     dE             d eps       ncg     rms          rms(c)
DAV:   1    -0.627488107940E+03    0.54792E-01   -0.33014E+01 10752   0.113E+01    0.140E+00
DAV:   2    -0.627575423782E+03   -0.87316E-01   -0.87780E-01 12660   0.201E+00    0.100E+00
DAV:   3    -0.627576122406E+03   -0.69862E-03   -0.44903E-02 14976   0.497E-01    0.457E-01
DAV:   4    -0.627573936712E+03    0.21857E-02   -0.63190E-03 14988   0.207E-01    0.346E-01
DAV:   5    -0.627573150048E+03    0.78666E-03   -0.52311E-03 13512   0.177E-01    0.148E-01
DAV:   6    -0.627573229378E+03   -0.79330E-04   -0.14100E-03 14424   0.907E-02    0.991E-02
DAV:   7    -0.627573232505E+03   -0.31274E-05   -0.22523E-04  7296   0.344E-02
  26 F= -.62757323E+03 E0= -.62757323E+03  d E =-.303339E-01  mag=    19.9994
       N       E                     dE             d eps       ncg     rms          rms(c)
DAV:   1    -0.627544711804E+03    0.28518E-01   -0.66516E+00 10752   0.507E+00    0.695E-01
DAV:   2    -0.627561019704E+03   -0.16308E-01   -0.17320E-01 12888   0.907E-01    0.488E-01
DAV:   3    -0.627561303863E+03   -0.28416E-03   -0.97267E-03 14556   0.228E-01    0.224E-01
DAV:   4    -0.627560796130E+03    0.50773E-03   -0.13973E-03 14616   0.973E-02    0.167E-01
DAV:   5    -0.627560620488E+03    0.17564E-03   -0.89377E-04 13224   0.790E-02    0.857E-02
DAV:   6    -0.627560621027E+03   -0.53829E-06   -0.15877E-04  6984   0.345E-02
  27 F= -.62756062E+03 E0= -.62756062E+03  d E =0.126115E-01  mag=    19.9995
       N       E                     dE             d eps       ncg     rms          rms(c)
DAV:   1    -0.627553878181E+03    0.67423E-02   -0.95810E-01 10752   0.176E+00    0.546E-01
DAV:   2    -0.627557073274E+03   -0.31951E-02   -0.59549E-02 14460   0.543E-01    0.715E-01
DAV:   3    -0.627556402419E+03    0.67086E-03   -0.56089E-03 13404   0.164E-01    0.560E-01
DAV:   4    -0.627555546927E+03    0.85549E-03   -0.46285E-03 13560   0.128E-01    0.425E-01
DAV:   5    -0.627555598443E+03   -0.51516E-04   -0.35409E-03 14796   0.134E-01    0.203E-01
DAV:   6    -0.627555314476E+03    0.28397E-03   -0.15944E-03 15252   0.105E-01    0.113E-01
DAV:   7    -0.627555276877E+03    0.37600E-04   -0.11874E-03 11700   0.643E-02    0.598E-02
DAV:   8    -0.627555284476E+03   -0.75995E-05   -0.94252E-05  6588   0.321E-02
  28 F= -.62755528E+03 E0= -.62755528E+03  d E =0.533655E-02  mag=    19.9997
       N       E                     dE             d eps       ncg     rms          rms(c)
DAV:   1    -0.627562427977E+03   -0.71511E-02   -0.11202E+00 10752   0.202E+00    0.469E-01
DAV:   2    -0.627565748744E+03   -0.33208E-02   -0.50241E-02 13956   0.519E-01    0.589E-01
DAV:   3    -0.627565307057E+03    0.44169E-03   -0.42894E-03 13536   0.154E-01    0.439E-01
DAV:   4    -0.627564786039E+03    0.52102E-03   -0.23396E-03 13164   0.937E-02    0.331E-01
DAV:   5    -0.627564643046E+03    0.14299E-03   -0.13920E-03 14100   0.101E-01    0.147E-01
DAV:   6    -0.627564594513E+03    0.48533E-04   -0.92377E-04 14676   0.802E-02
  29 F= -.62756459E+03 E0= -.62756459E+03  d E =-.931004E-02  mag=    19.9997
       N       E                     dE             d eps       ncg     rms          rms(c)
DAV:   1    -0.627567035824E+03   -0.23928E-02   -0.10885E+00 10752   0.205E+00    0.249E-01
DAV:   2    -0.627569955949E+03   -0.29201E-02   -0.28947E-02 12456   0.357E-01    0.153E-01
DAV:   3    -0.627569983687E+03   -0.27737E-04   -0.10290E-03 13836   0.698E-02    0.856E-02
DAV:   4    -0.627569917169E+03    0.66518E-04   -0.12626E-04  7608   0.350E-02
  30 F= -.62756992E+03 E0= -.62756992E+03  d E =-.532266E-02  mag=    19.9998
       N       E                     dE             d eps       ncg     rms          rms(c)
DAV:   1    -0.627549528843E+03    0.20455E-01   -0.37855E+00 10752   0.382E+00    0.563E-01
DAV:   2    -0.627558956272E+03   -0.94274E-02   -0.10223E-01 12204   0.693E-01    0.339E-01
DAV:   3    -0.627559248765E+03   -0.29249E-03   -0.54821E-03 15840   0.171E-01    0.211E-01
DAV:   4    -0.627558986856E+03    0.26191E-03   -0.96932E-04 13740   0.670E-02    0.140E-01
DAV:   5    -0.627558833540E+03    0.15332E-03   -0.30434E-04  9348   0.549E-02    0.531E-02
DAV:   6    -0.627558843391E+03   -0.98512E-05   -0.24325E-04  8004   0.408E-02
  31 F= -.62755884E+03 E0= -.62755884E+03  d E =0.110738E-01  mag=    19.9998
       N       E                     dE             d eps       ncg     rms          rms(c)
DAV:   1    -0.627559581939E+03   -0.74840E-03   -0.52680E+00 10752   0.452E+00    0.741E-01
DAV:   2    -0.627571282442E+03   -0.11701E-01   -0.13983E-01 12324   0.828E-01    0.403E-01
DAV:   3    -0.627571762901E+03   -0.48046E-03   -0.95237E-03 15852   0.238E-01    0.284E-01
DAV:   4    -0.627571428931E+03    0.33397E-03   -0.16747E-03 14484   0.827E-02    0.165E-01
DAV:   5    -0.627571146503E+03    0.28243E-03   -0.52690E-04 11940   0.737E-02    0.898E-02
DAV:   6    -0.627571137027E+03    0.94760E-05   -0.51731E-04 12216   0.574E-02
  32 F= -.62757114E+03 E0= -.62757114E+03  d E =-.122936E-01  mag=    19.9999
       N       E                     dE             d eps       ncg     rms          rms(c)
DAV:   1    -0.627573322165E+03   -0.21757E-02   -0.14865E-01 10752   0.769E-01    0.240E-01
DAV:   2    -0.627573146735E+03    0.17543E-03   -0.61341E-03 14832   0.200E-01    0.160E-01
DAV:   3    -0.627573104165E+03    0.42570E-04   -0.82562E-04 13764   0.942E-02
  33 F= -.62757310E+03 E0= -.62757310E+03  d E =-.196714E-02  mag=    19.9999
       N       E                     dE             d eps       ncg     rms          rms(c)
DAV:   1    -0.627566308023E+03    0.68387E-02   -0.82330E-01 10776   0.178E+00    0.204E-01
DAV:   2    -0.627568485906E+03   -0.21779E-02   -0.21298E-02 12360   0.304E-01    0.113E-01
DAV:   3    -0.627568517007E+03   -0.31101E-04   -0.69732E-04 12084   0.534E-02
  34 F= -.62756852E+03 E0= -.62756852E+03  d E =0.458716E-02  mag=    19.9999
       N       E                     dE             d eps       ncg     rms          rms(c)
DAV:   1    -0.627566950151E+03    0.15358E-02   -0.46422E+00 10752   0.424E+00    0.494E-01
DAV:   2    -0.627579237253E+03   -0.12287E-01   -0.12260E-01 11928   0.733E-01    0.275E-01
DAV:   3    -0.627579384590E+03   -0.14734E-03   -0.41498E-03 15264   0.133E-01    0.148E-01
DAV:   4    -0.627579137275E+03    0.24731E-03   -0.55396E-04 11340   0.587E-02    0.994E-02
DAV:   5    -0.627579039326E+03    0.97949E-04   -0.42781E-04  9720   0.513E-02
  35 F= -.62757904E+03 E0= -.62757904E+03  d E =-.105223E-01  mag=    19.9999
       N       E                     dE             d eps       ncg     rms          rms(c)
DAV:   1    -0.627579193766E+03   -0.56491E-04   -0.32279E+00 10752   0.352E+00    0.555E-01
DAV:   2    -0.627586889515E+03   -0.76957E-02   -0.84508E-02 12504   0.634E-01    0.291E-01
DAV:   3    -0.627587262699E+03   -0.37318E-03   -0.53701E-03 15708   0.163E-01    0.183E-01
DAV:   4    -0.627587044887E+03    0.21781E-03   -0.10059E-03 13596   0.668E-02    0.106E-01
DAV:   5    -0.627586918694E+03    0.12619E-03   -0.21505E-04  8388   0.531E-02    0.666E-02
DAV:   6    -0.627586919090E+03   -0.39546E-06   -0.24854E-04  7980   0.404E-02
  36 F= -.62758692E+03 E0= -.62758692E+03  d E =-.787976E-02  mag=    19.9999
       N       E                     dE             d eps       ncg     rms          rms(c)
DAV:   1    -0.627584523347E+03    0.23953E-02   -0.27491E-01 10752   0.103E+00    0.176E-01
DAV:   2    -0.627585237672E+03   -0.71433E-03   -0.74276E-03 12768   0.199E-01    0.129E-01
DAV:   3    -0.627585267063E+03   -0.29390E-04   -0.57919E-04 11928   0.579E-02
  37 F= -.62758527E+03 E0= -.62758527E+03  d E =0.165203E-02  mag=    19.9999
       N       E                     dE             d eps       ncg     rms          rms(c)
DAV:   1    -0.627587626462E+03   -0.23888E-02   -0.91677E-01 10752   0.189E+00    0.314E-01
DAV:   2    -0.627589323078E+03   -0.16966E-02   -0.27353E-02 13248   0.365E-01    0.189E-01
DAV:   3    -0.627589280521E+03    0.42557E-04   -0.18257E-03 14808   0.121E-01    0.122E-01
DAV:   4    -0.627589225850E+03    0.54671E-04   -0.36639E-04 10236   0.451E-02
  38 F= -.62758923E+03 E0= -.62758923E+03  d E =-.395879E-02  mag=    19.9999
       N       E                     dE             d eps       ncg     rms          rms(c)
DAV:   1    -0.627591019421E+03   -0.17389E-02   -0.17947E-01 10752   0.832E-01    0.160E-01
DAV:   2    -0.627591273255E+03   -0.25383E-03   -0.50057E-03 12948   0.159E-01    0.891E-02
DAV:   3    -0.627591264384E+03    0.88711E-05   -0.35282E-04  9912   0.590E-02
  39 F= -.62759126E+03 E0= -.62759126E+03  d E =-.203853E-02  mag=    19.9999
       N       E                     dE             d eps       ncg     rms          rms(c)
DAV:   1    -0.627590469982E+03    0.80327E-03   -0.31006E-02 10764   0.353E-01    0.740E-02
DAV:   2    -0.627590505206E+03   -0.35224E-04   -0.10764E-03 12384   0.727E-02    0.488E-02
DAV:   3    -0.627590500388E+03    0.48187E-05   -0.82152E-05  6264   0.292E-02
  40 F= -.62759050E+03 E0= -.62759050E+03  d E =0.763996E-03  mag=    19.9999
       N       E                     dE             d eps       ncg     rms          rms(c)
DAV:   1    -0.627592222269E+03   -0.17171E-02   -0.68121E-01 10752   0.164E+00    0.303E-01
DAV:   2    -0.627593382740E+03   -0.11605E-02   -0.20914E-02 13380   0.327E-01    0.212E-01
DAV:   3    -0.627593333299E+03    0.49441E-04   -0.13015E-03 14136   0.101E-01    0.114E-01
DAV:   4    -0.627593264253E+03    0.69046E-04   -0.20736E-04  7920   0.392E-02
  41 F= -.62759326E+03 E0= -.62759326E+03  d E =-.276386E-02  mag=    20.0000
       N       E                     dE             d eps       ncg     rms          rms(c)
DAV:   1    -0.627595295598E+03   -0.19623E-02   -0.10369E-01 11184   0.677E-01    0.317E-01
DAV:   2    -0.627594142271E+03    0.11533E-02   -0.90347E-03 15828   0.231E-01    0.221E-01
DAV:   3    -0.627593920419E+03    0.22185E-03   -0.18196E-03 15228   0.119E-01    0.833E-02
DAV:   4    -0.627593865598E+03    0.54822E-04   -0.18139E-04  7656   0.402E-02
  42 F= -.62759387E+03 E0= -.62759387E+03  d E =-.601345E-03  mag=    20.0000
       N       E                     dE             d eps       ncg     rms          rms(c)
DAV:   1    -0.627595311064E+03   -0.13906E-02   -0.18079E-01 10752   0.832E-01    0.171E-01
DAV:   2    -0.627595858580E+03   -0.54752E-03   -0.67468E-03 14412   0.207E-01    0.198E-01
DAV:   3    -0.627595807065E+03    0.51515E-04   -0.59978E-04 11940   0.674E-02
  43 F= -.62759581E+03 E0= -.62759581E+03  d E =-.194147E-02  mag=    20.0000
       N       E                     dE             d eps       ncg     rms          rms(c)
DAV:   1    -0.627597627213E+03   -0.17686E-02   -0.68098E-01 10752   0.162E+00    0.297E-01
DAV:   2    -0.627599038033E+03   -0.14108E-02   -0.18110E-02 12984   0.292E-01    0.181E-01
DAV:   3    -0.627599024434E+03    0.13599E-04   -0.10740E-03 14052   0.889E-02    0.115E-01
DAV:   4    -0.627598953637E+03    0.70797E-04   -0.17218E-04  7788   0.337E-02
  44 F= -.62759895E+03 E0= -.62759895E+03  d E =-.314657E-02  mag=    20.0000
       N       E                     dE             d eps       ncg     rms          rms(c)
DAV:   1    -0.627601143914E+03   -0.21195E-02   -0.30304E-01 10752   0.109E+00    0.224E-01
DAV:   2    -0.627601568304E+03   -0.42439E-03   -0.99684E-03 14724   0.236E-01    0.181E-01
DAV:   3    -0.627601515556E+03    0.52749E-04   -0.77360E-04 12888   0.859E-02
  45 F= -.62760152E+03 E0= -.62760152E+03  d E =-.256192E-02  mag=    20.0000
       N       E                     dE             d eps       ncg     rms          rms(c)
DAV:   1    -0.627603079875E+03   -0.15116E-02   -0.10815E+00 10752   0.204E+00    0.280E-01
DAV:   2    -0.627605729667E+03   -0.26498E-02   -0.28326E-02 13044   0.370E-01    0.209E-01
DAV:   3    -0.627605723443E+03    0.62233E-05   -0.14570E-03 14520   0.824E-02    0.115E-01
DAV:   4    -0.627605596911E+03    0.12653E-03   -0.32970E-04  9588   0.501E-02    0.761E-02
DAV:   5    -0.627605585086E+03    0.11824E-04   -0.25920E-04  7788   0.420E-02
  46 F= -.62760559E+03 E0= -.62760559E+03  d E =-.406953E-02  mag=    20.0000
       N       E                     dE             d eps       ncg     rms          rms(c)
DAV:   1    -0.627607016852E+03   -0.14199E-02   -0.22236E-01 10752   0.927E-01    0.164E-01
DAV:   2    -0.627607562668E+03   -0.54582E-03   -0.69201E-03 13680   0.209E-01    0.149E-01
DAV:   3    -0.627607576159E+03   -0.13491E-04   -0.87362E-04 12756   0.688E-02
  47 F= -.62760758E+03 E0= -.62760758E+03  d E =-.199107E-02  mag=    20.0000
       N       E                     dE             d eps       ncg     rms          rms(c)
DAV:   1    -0.627609423663E+03   -0.18610E-02   -0.59125E-01 10752   0.151E+00    0.230E-01
DAV:   2    -0.627610677933E+03   -0.12543E-02   -0.16214E-02 13176   0.276E-01    0.140E-01
DAV:   3    -0.627610650575E+03    0.27358E-04   -0.92628E-04 13800   0.812E-02
  48 F= -.62761065E+03 E0= -.62761065E+03  d E =-.307442E-02  mag=    20.0000
       N       E                     dE             d eps       ncg     rms          rms(c)
DAV:   1    -0.627612400226E+03   -0.17223E-02   -0.41116E-01 10752   0.126E+00    0.171E-01
DAV:   2    -0.627613299493E+03   -0.89927E-03   -0.11114E-02 13128   0.233E-01    0.135E-01
DAV:   3    -0.627613273183E+03    0.26310E-04   -0.54279E-04 11844   0.642E-02
  49 F= -.62761327E+03 E0= -.62761327E+03  d E =-.262261E-02  mag=    20.0000
       N       E                     dE             d eps       ncg     rms          rms(c)
DAV:   1    -0.627609667516E+03    0.36320E-02   -0.50769E+00 10752   0.442E+00    0.572E-01
DAV:   2    -0.627622039154E+03   -0.12372E-01   -0.13328E-01 12192   0.763E-01    0.351E-01
DAV:   3    -0.627621963369E+03    0.75785E-04   -0.51773E-03 15240   0.166E-01    0.188E-01
DAV:   4    -0.627621567056E+03    0.39631E-03   -0.10366E-03 13644   0.779E-02    0.113E-01
DAV:   5    -0.627621473945E+03    0.93110E-04   -0.67353E-04 11808   0.616E-02
  50 F= -.62762147E+03 E0= -.62762147E+03  d E =-.820076E-02  mag=    20.0000
       N       E                     dE             d eps       ncg     rms          rms(c)
DAV:   1    -0.627596390535E+03    0.25177E-01   -0.14643E+01 10776   0.748E+00    0.893E-01
DAV:   2    -0.627635480948E+03   -0.39090E-01   -0.37922E-01 12300   0.128E+00    0.473E-01
DAV:   3    -0.627636441769E+03   -0.96082E-03   -0.15321E-02 14988   0.241E-01    0.258E-01
DAV:   4    -0.627635646883E+03    0.79489E-03   -0.22533E-03 15792   0.111E-01    0.166E-01
DAV:   5    -0.627635270631E+03    0.37625E-03   -0.12583E-03 12756   0.839E-02    0.880E-02
DAV:   6    -0.627635281571E+03   -0.10940E-04   -0.40243E-04  9612   0.451E-02
  51 F= -.62763528E+03 E0= -.62763528E+03  d E =-.138076E-01  mag=    20.0000
       N       E                     dE             d eps       ncg     rms          rms(c)
DAV:   1    -0.627624557864E+03    0.10713E-01   -0.27139E+00 10752   0.325E+00    0.470E-01
DAV:   2    -0.627630321803E+03   -0.57639E-02   -0.79155E-02 13728   0.635E-01    0.420E-01
DAV:   3    -0.627630100281E+03    0.22152E-03   -0.47774E-03 14244   0.185E-01    0.188E-01
DAV:   4    -0.627629847542E+03    0.25274E-03   -0.60118E-04 12012   0.662E-02    0.153E-01
DAV:   5    -0.627629756619E+03    0.90923E-04   -0.42801E-04  9432   0.476E-02
  52 F= -.62762976E+03 E0= -.62762976E+03  d E =0.552495E-02  mag=    20.0000
       N       E                     dE             d eps       ncg     rms          rms(c)
DAV:   1    -0.627631252330E+03   -0.14048E-02   -0.21521E-01 10752   0.924E-01    0.160E-01
DAV:   2    -0.627631582717E+03   -0.33039E-03   -0.73051E-03 14508   0.192E-01    0.127E-01
DAV:   3    -0.627631531793E+03    0.50924E-04   -0.50447E-04 11316   0.673E-02
  53 F= -.62763153E+03 E0= -.62763153E+03  d E =-.177517E-02  mag=    20.0000
       N       E                     dE             d eps       ncg     rms          rms(c)
DAV:   1    -0.627632710450E+03   -0.11277E-02   -0.10078E+00 10752   0.197E+00    0.272E-01
DAV:   2    -0.627635026312E+03   -0.23159E-02   -0.27009E-02 12324   0.347E-01    0.174E-01
DAV:   3    -0.627634996936E+03    0.29376E-04   -0.11646E-03 14424   0.852E-02    0.882E-02
DAV:   4    -0.627634915502E+03    0.81435E-04   -0.19067E-04  7512   0.400E-02
  54 F= -.62763492E+03 E0= -.62763492E+03  d E =-.338371E-02  mag=    20.0000
       N       E                     dE             d eps       ncg     rms          rms(c)
DAV:   1    -0.627635827831E+03   -0.83090E-03   -0.12913E-01 10752   0.701E-01    0.850E-02
DAV:   2    -0.627636120585E+03   -0.29275E-03   -0.32831E-03 13260   0.125E-01    0.556E-02
DAV:   3    -0.627636125776E+03   -0.51908E-05   -0.17896E-04  6876   0.325E-02
  55 F= -.62763613E+03 E0= -.62763613E+03  d E =-.121027E-02  mag=    20.0000
       N       E                     dE             d eps       ncg     rms          rms(c)
DAV:   1    -0.627637588873E+03   -0.14683E-02   -0.38602E-01 10752   0.122E+00    0.204E-01
DAV:   2    -0.627638250710E+03   -0.66184E-03   -0.11146E-02 13356   0.228E-01    0.138E-01
DAV:   3    -0.627638213590E+03    0.37120E-04   -0.70270E-04 12756   0.717E-02
  56 F= -.62763821E+03 E0= -.62763821E+03  d E =-.208781E-02  mag=    20.0000
       N       E                     dE             d eps       ncg     rms          rms(c)
DAV:   1    -0.627637671902E+03    0.57881E-03   -0.20380E+00 10752   0.279E+00    0.298E-01
DAV:   2    -0.627642883779E+03   -0.52119E-02   -0.52364E-02 12300   0.476E-01    0.183E-01
DAV:   3    -0.627642907962E+03   -0.24183E-04   -0.18259E-03 14964   0.892E-02    0.121E-01
DAV:   4    -0.627642802556E+03    0.10541E-03   -0.14497E-04  7092   0.332E-02    0.809E-02
DAV:   5    -0.627642734865E+03    0.67690E-04   -0.48533E-04  9768   0.513E-02
  57 F= -.62764273E+03 E0= -.62764273E+03  d E =-.452128E-02  mag=    20.0000
       N       E                     dE             d eps       ncg     rms          rms(c)
DAV:   1    -0.627641633046E+03    0.11695E-02   -0.13036E-01 10752   0.721E-01    0.136E-01
DAV:   2    -0.627641847420E+03   -0.21437E-03   -0.49701E-03 14460   0.168E-01    0.139E-01
DAV:   3    -0.627641790823E+03    0.56597E-04   -0.40104E-04 10236   0.576E-02
  58 F= -.62764179E+03 E0= -.62764179E+03  d E =0.944042E-03  mag=    20.0000
       N       E                     dE             d eps       ncg     rms          rms(c)
DAV:   1    -0.627642548664E+03   -0.70124E-03   -0.64328E-01 10752   0.157E+00    0.194E-01
DAV:   2    -0.627644293714E+03   -0.17450E-02   -0.17092E-02 11976   0.269E-01    0.104E-01
DAV:   3    -0.627644329083E+03   -0.35370E-04   -0.53459E-04 11604   0.532E-02
  59 F= -.62764433E+03 E0= -.62764433E+03  d E =-.253826E-02  mag=    20.0000
       N       E                     dE             d eps       ncg     rms          rms(c)
DAV:   1    -0.627643528922E+03    0.76479E-03   -0.43131E-02 10752   0.408E-01    0.929E-02
DAV:   2    -0.627643637765E+03   -0.10884E-03   -0.18540E-03 14076   0.110E-01    0.992E-02
DAV:   3    -0.627643622178E+03    0.15588E-04   -0.18239E-04  7536   0.382E-02
  60 F= -.62764362E+03 E0= -.62764362E+03  d E =0.706905E-03  mag=    20.0000
       N       E                     dE             d eps       ncg     rms          rms(c)
DAV:   1    -0.627644458953E+03   -0.82119E-03   -0.67100E-01 10752   0.160E+00    0.192E-01
DAV:   2    -0.627646280419E+03   -0.18215E-02   -0.18931E-02 13248   0.296E-01    0.176E-01
DAV:   3    -0.627646246594E+03    0.33825E-04   -0.95895E-04 13272   0.738E-02
  61 F= -.62764625E+03 E0= -.62764625E+03  d E =-.262442E-02  mag=    20.0000
       N       E                     dE             d eps       ncg     rms          rms(c)
DAV:   1    -0.627646813152E+03   -0.53273E-03   -0.49128E-02 10752   0.432E-01    0.889E-02
DAV:   2    -0.627646917340E+03   -0.10419E-03   -0.14452E-03 13848   0.879E-02    0.604E-02
DAV:   3    -0.627646898280E+03    0.19060E-04   -0.10803E-04  7404   0.349E-02
  62 F= -.62764690E+03 E0= -.62764690E+03  d E =-.651686E-03  mag=    20.0000
       N       E                     dE             d eps       ncg     rms          rms(c)
DAV:   1    -0.627646909235E+03    0.81054E-05   -0.12615E+00 10752   0.221E+00    0.265E-01
DAV:   2    -0.627650002591E+03   -0.30934E-02   -0.34386E-02 12516   0.397E-01    0.181E-01
DAV:   3    -0.627649988687E+03    0.13903E-04   -0.13918E-03 14820   0.935E-02    0.134E-01
DAV:   4    -0.627649915330E+03    0.73357E-04   -0.18417E-04  7416   0.338E-02
  63 F= -.62764992E+03 E0= -.62764992E+03  d E =-.301705E-02  mag=    20.0000
       N       E                     dE             d eps       ncg     rms          rms(c)
DAV:   1    -0.627650879361E+03   -0.89067E-03   -0.13160E-01 10752   0.703E-01    0.146E-01
DAV:   2    -0.627651179189E+03   -0.29983E-03   -0.36078E-03 13332   0.144E-01    0.113E-01
DAV:   3    -0.627651180544E+03   -0.13552E-05   -0.27535E-04  8892   0.535E-02
  64 F= -.62765118E+03 E0= -.62765118E+03  d E =-.126521E-02  mag=    20.0000
       N       E                     dE             d eps       ncg     rms          rms(c)
DAV:   1    -0.627652426402E+03   -0.12472E-02   -0.28901E-01 10752   0.106E+00    0.279E-01
DAV:   2    -0.627652569019E+03   -0.14262E-03   -0.93446E-03 14424   0.232E-01    0.187E-01
DAV:   3    -0.627652519273E+03    0.49746E-04   -0.10451E-03 14316   0.985E-02    0.106E-01
DAV:   4    -0.627652465869E+03    0.53404E-04   -0.14865E-04  7716   0.326E-02
  65 F= -.62765247E+03 E0= -.62765247E+03  d E =-.128533E-02  mag=    20.0000
       N       E                     dE             d eps       ncg     rms          rms(c)
DAV:   1    -0.627653846777E+03   -0.13275E-02   -0.13317E-01 10764   0.734E-01    0.213E-01
DAV:   2    -0.627653682242E+03    0.16453E-03   -0.57103E-03 15276   0.185E-01    0.153E-01
DAV:   3    -0.627653612623E+03    0.69620E-04   -0.65360E-04 12036   0.824E-02
  66 F= -.62765361E+03 E0= -.62765361E+03  d E =-.114675E-02  mag=    20.0000
       N       E                     dE             d eps       ncg     rms          rms(c)
DAV:   1    -0.627654330174E+03   -0.64793E-03   -0.65927E-01 10752   0.159E+00    0.248E-01
DAV:   2    -0.627655798371E+03   -0.14682E-02   -0.18289E-02 12840   0.287E-01    0.159E-01
DAV:   3    -0.627655771561E+03    0.26810E-04   -0.88376E-04 13776   0.790E-02
  67 F= -.62765577E+03 E0= -.62765577E+03  d E =-.215894E-02  mag=    20.0000
       N       E                     dE             d eps       ncg     rms          rms(c)
DAV:   1    -0.627655406179E+03    0.39219E-03   -0.14152E-02 10764   0.238E-01    0.541E-02
DAV:   2    -0.627655441083E+03   -0.34904E-04   -0.58613E-04 10848   0.539E-02
  68 F= -.62765544E+03 E0= -.62765544E+03  d E =0.330478E-03  mag=    20.0000
       N       E                     dE             d eps       ncg     rms          rms(c)
DAV:   1    -0.627655490908E+03   -0.84730E-04   -0.63171E-03 11364   0.168E-01    0.782E-02
DAV:   2    -0.627655430569E+03    0.60340E-04   -0.59499E-04 12072   0.622E-02
  69 F= -.62765543E+03 E0= -.62765543E+03  d E =0.105142E-04  mag=    20.0000
       N       E                     dE             d eps       ncg     rms          rms(c)
DAV:   1    -0.627657014862E+03   -0.15240E-02   -0.48561E-01 10764   0.139E+00    0.306E-01
DAV:   2    -0.627657135052E+03   -0.12019E-03   -0.16099E-02 13440   0.291E-01    0.208E-01
DAV:   3    -0.627657036373E+03    0.98679E-04   -0.14350E-03 14628   0.110E-01    0.112E-01
DAV:   4    -0.627656971264E+03    0.65109E-04   -0.37446E-04 10092   0.430E-02
  70 F= -.62765697E+03 E0= -.62765697E+03  d E =-.154070E-02  mag=    20.0000
       N       E                     dE             d eps       ncg     rms          rms(c)
DAV:   1    -0.627658057883E+03   -0.10215E-02   -0.95485E-02 10752   0.612E-01    0.159E-01
DAV:   2    -0.627658014256E+03    0.43627E-04   -0.39778E-03 13980   0.150E-01    0.123E-01
DAV:   3    -0.627657972839E+03    0.41417E-04   -0.33015E-04 10212   0.608E-02
  71 F= -.62765797E+03 E0= -.62765797E+03  d E =-.100158E-02  mag=    20.0000
       N       E                     dE             d eps       ncg     rms          rms(c)
DAV:   1    -0.627658427112E+03   -0.41286E-03   -0.31776E-02 10752   0.353E-01    0.842E-02
DAV:   2    -0.627658459203E+03   -0.32090E-04   -0.10724E-03 12612   0.738E-02    0.566E-02
DAV:   3    -0.627658447503E+03    0.11700E-04   -0.78432E-05  6888   0.292E-02
  72 F= -.62765845E+03 E0= -.62765845E+03  d E =-.474664E-03  mag=    20.0000
       N       E                     dE             d eps       ncg     rms          rms(c)
DAV:   1    -0.627659176331E+03   -0.71713E-03   -0.28606E-01 10752   0.104E+00    0.133E-01
DAV:   2    -0.627659917724E+03   -0.74139E-03   -0.74506E-03 12168   0.178E-01    0.804E-02
DAV:   3    -0.627659920988E+03   -0.32648E-05   -0.23290E-04  8940   0.390E-02
  73 F= -.62765992E+03 E0= -.62765992E+03  d E =-.147349E-02  mag=    20.0000
       N       E                     dE             d eps       ncg     rms          rms(c)
DAV:   1    -0.627659704625E+03    0.21310E-03   -0.88315E-03 10680   0.182E-01    0.475E-02
DAV:   2    -0.627659730160E+03   -0.25534E-04   -0.42326E-04  9816   0.505E-02
  74 F= -.62765973E+03 E0= -.62765973E+03  d E =0.190829E-03  mag=    20.0000
       N       E                     dE             d eps       ncg     rms          rms(c)
DAV:   1    -0.627659631227E+03    0.73398E-04   -0.21353E-03  9936   0.910E-02    0.280E-02
DAV:   2    -0.627659635321E+03   -0.40933E-05   -0.11508E-04  6504   0.282E-02
  75 F= -.62765964E+03 E0= -.62765964E+03  d E =0.948391E-04  mag=    20.0000
       N       E                     dE             d eps       ncg     rms          rms(c)
DAV:   1    -0.627660585756E+03   -0.95453E-03   -0.41075E-01 10752   0.126E+00    0.207E-01
DAV:   2    -0.627661292581E+03   -0.70683E-03   -0.12009E-02 13116   0.235E-01    0.135E-01
DAV:   3    -0.627661269519E+03    0.23062E-04   -0.68499E-04 12612   0.696E-02
  76 F= -.62766127E+03 E0= -.62766127E+03  d E =-.163420E-02  mag=    20.0000
       N       E                     dE             d eps       ncg     rms          rms(c)
DAV:   1    -0.627662087541E+03   -0.79496E-03   -0.35609E-01 10752   0.117E+00    0.139E-01
DAV:   2    -0.627662975658E+03   -0.88812E-03   -0.96536E-03 12984   0.207E-01    0.950E-02
DAV:   3    -0.627662966163E+03    0.94947E-05   -0.42256E-04 10812   0.497E-02
  77 F= -.62766297E+03 E0= -.62766297E+03  d E =-.169664E-02  mag=    20.0000
       N       E                     dE             d eps       ncg     rms          rms(c)
DAV:   1    -0.627660761350E+03    0.22143E-02   -0.25243E+00 10752   0.310E+00    0.371E-01
DAV:   2    -0.627667175744E+03   -0.64144E-02   -0.65083E-02 11940   0.525E-01    0.214E-01
DAV:   3    -0.627667218695E+03   -0.42952E-04   -0.24148E-03 15240   0.101E-01    0.119E-01
DAV:   4    -0.627667041000E+03    0.17770E-03   -0.40924E-04 10140   0.521E-02    0.693E-02
DAV:   5    -0.627667003597E+03    0.37403E-04   -0.35218E-04  9132   0.489E-02
  78 F= -.62766700E+03 E0= -.62766700E+03  d E =-.403743E-02  mag=    20.0000
       N       E                     dE             d eps       ncg     rms          rms(c)
DAV:   1    -0.627665946303E+03    0.10947E-02   -0.15450E+00 10776   0.242E+00    0.313E-01
DAV:   2    -0.627670149936E+03   -0.42036E-02   -0.40115E-02 12420   0.416E-01    0.160E-01
DAV:   3    -0.627670321882E+03   -0.17195E-03   -0.19243E-03 14964   0.848E-02    0.912E-02
DAV:   4    -0.627670233591E+03    0.88290E-04   -0.18135E-04  7500   0.358E-02
  79 F= -.62767023E+03 E0= -.62767023E+03  d E =-.322999E-02  mag=    20.0000
       N       E                     dE             d eps       ncg     rms          rms(c)
DAV:   1    -0.627658192055E+03    0.12130E-01   -0.28272E+00 10752   0.329E+00    0.373E-01
DAV:   2    -0.627666005659E+03   -0.78136E-02   -0.74895E-02 11712   0.559E-01    0.200E-01
DAV:   3    -0.627666171208E+03   -0.16555E-03   -0.25045E-03 15204   0.971E-02    0.104E-01
DAV:   4    -0.627666024533E+03    0.14668E-03   -0.26569E-04  8400   0.410E-02    0.664E-02
DAV:   5    -0.627665955053E+03    0.69480E-04   -0.28546E-04  7872   0.454E-02
  80 F= -.62766596E+03 E0= -.62766596E+03  d E =0.427854E-02  mag=    20.0000
       N       E                     dE             d eps       ncg     rms          rms(c)
DAV:   1    -0.627666427857E+03   -0.40332E-03   -0.29032E-01 10752   0.106E+00    0.133E-01
DAV:   2    -0.627667108137E+03   -0.68028E-03   -0.86258E-03 13608   0.222E-01    0.142E-01
DAV:   3    -0.627667088379E+03    0.19759E-04   -0.67834E-04 12156   0.632E-02
  81 F= -.62766709E+03 E0= -.62766709E+03  d E =-.113333E-02  mag=    20.0000
       N       E                     dE             d eps       ncg     rms          rms(c)
DAV:   1    -0.627667662235E+03   -0.55410E-03   -0.53797E-01 10752   0.143E+00    0.214E-01
DAV:   2    -0.627669160302E+03   -0.14981E-02   -0.15938E-02 13752   0.288E-01    0.190E-01
DAV:   3    -0.627669108922E+03    0.51380E-04   -0.11822E-03 14208   0.889E-02    0.914E-02
DAV:   4    -0.627669061678E+03    0.47244E-04   -0.15353E-04  7308   0.317E-02
  82 F= -.62766906E+03 E0= -.62766906E+03  d E =-.197330E-02  mag=    20.0000
       N       E                     dE             d eps       ncg     rms          rms(c)
DAV:   1    -0.627669621187E+03   -0.51226E-03   -0.11444E-01 10752   0.659E-01    0.887E-02
DAV:   2    -0.627669897313E+03   -0.27613E-03   -0.28681E-03 13188   0.116E-01    0.600E-02
DAV:   3    -0.627669898532E+03   -0.12188E-05   -0.15086E-04  7428   0.301E-02
  83 F= -.62766990E+03 E0= -.62766990E+03  d E =-.836854E-03  mag=    20.0000
       N       E                     dE             d eps       ncg     rms          rms(c)
DAV:   1    -0.627670507474E+03   -0.61016E-03   -0.21779E-01 10752   0.918E-01    0.138E-01
DAV:   2    -0.627670994224E+03   -0.48675E-03   -0.65195E-03 13764   0.187E-01    0.133E-01
DAV:   3    -0.627670958717E+03    0.35507E-04   -0.41399E-04 10296   0.553E-02
  84 F= -.62767096E+03 E0= -.62767096E+03  d E =-.106019E-02  mag=    20.0000
       N       E                     dE             d eps       ncg     rms          rms(c)
DAV:   1    -0.627671571222E+03   -0.57700E-03   -0.11426E-01 10752   0.663E-01    0.123E-01
DAV:   2    -0.627671853069E+03   -0.28185E-03   -0.43494E-03 14640   0.161E-01    0.131E-01
DAV:   3    -0.627671793118E+03    0.59950E-04   -0.39434E-04 10428   0.540E-02
  85 F= -.62767179E+03 E0= -.62767179E+03  d E =-.834401E-03  mag=    20.0000
       N       E                     dE             d eps       ncg     rms          rms(c)
DAV:   1    -0.627672364996E+03   -0.51193E-03   -0.17097E-01 10752   0.807E-01    0.117E-01
DAV:   2    -0.627672799449E+03   -0.43445E-03   -0.45404E-03 13164   0.146E-01    0.705E-02
DAV:   3    -0.627672792857E+03    0.65917E-05   -0.20772E-04  8412   0.409E-02
  86 F= -.62767279E+03 E0= -.62767279E+03  d E =-.999739E-03  mag=    20.0000
       N       E                     dE             d eps       ncg     rms          rms(c)
DAV:   1    -0.627673234966E+03   -0.43552E-03   -0.59460E-02 10752   0.477E-01    0.593E-02
DAV:   2    -0.627673369371E+03   -0.13441E-03   -0.15278E-03 12756   0.829E-02    0.444E-02
DAV:   3    -0.627673362106E+03    0.72649E-05   -0.46161E-05  6000   0.209E-02
  87 F= -.62767336E+03 E0= -.62767336E+03  d E =-.569249E-03  mag=    20.0000
       N       E                     dE             d eps       ncg     rms          rms(c)
DAV:   1    -0.627673400985E+03   -0.31613E-04   -0.81092E-01 10752   0.176E+00    0.200E-01
DAV:   2    -0.627675471150E+03   -0.20702E-02   -0.21127E-02 11952   0.298E-01    0.116E-01
DAV:   3    -0.627675477487E+03   -0.63366E-05   -0.72461E-04 12648   0.558E-02
  88 F= -.62767548E+03 E0= -.62767548E+03  d E =-.211538E-02  mag=    20.0000
       N       E                     dE             d eps       ncg     rms          rms(c)
DAV:   1    -0.627675574912E+03   -0.10376E-03   -0.38907E-03 11196   0.131E-01    0.829E-02
DAV:   2    -0.627675485841E+03    0.89071E-04   -0.55876E-04 11676   0.616E-02
  89 F= -.62767549E+03 E0= -.62767549E+03  d E =-.835393E-05  mag=    20.0000
       N       E                     dE             d eps       ncg     rms          rms(c)
DAV:   1    -0.627675969740E+03   -0.39483E-03   -0.26447E-01 10752   0.100E+00    0.134E-01
DAV:   2    -0.627676643620E+03   -0.67388E-03   -0.67786E-03 13080   0.176E-01    0.773E-02
DAV:   3    -0.627676659926E+03   -0.16306E-04   -0.34807E-04  9444   0.398E-02
  90 F= -.62767666E+03 E0= -.62767666E+03  d E =-.117409E-02  mag=    20.0000
       N       E                     dE             d eps       ncg     rms          rms(c)
DAV:   1    -0.627677040573E+03   -0.39695E-03   -0.48067E-02 10752   0.429E-01    0.557E-02
DAV:   2    -0.627677156089E+03   -0.11552E-03   -0.12881E-03 12288   0.786E-02    0.436E-02
DAV:   3    -0.627677149669E+03    0.64198E-05   -0.46960E-05  6060   0.194E-02
  91 F= -.62767715E+03 E0= -.62767715E+03  d E =-.489743E-03  mag=    20.0000
       N       E                     dE             d eps       ncg     rms          rms(c)
DAV:   1    -0.627677684629E+03   -0.52854E-03   -0.17811E-01 10752   0.826E-01    0.110E-01
DAV:   2    -0.627678093045E+03   -0.40842E-03   -0.47465E-03 12840   0.143E-01    0.650E-02
DAV:   3    -0.627678081053E+03    0.11992E-04   -0.14996E-04  7812   0.348E-02
  92 F= -.62767808E+03 E0= -.62767808E+03  d E =-.931384E-03  mag=    20.0000
       N       E                     dE             d eps       ncg     rms          rms(c)
DAV:   1    -0.627678415437E+03   -0.32239E-03   -0.29517E-02 10812   0.334E-01    0.472E-02
DAV:   2    -0.627678478744E+03   -0.63306E-04   -0.71503E-04 10860   0.560E-02
  93 F= -.62767848E+03 E0= -.62767848E+03  d E =-.397691E-03  mag=    20.0000
       N       E                     dE             d eps       ncg     rms          rms(c)
DAV:   1    -0.627678670813E+03   -0.25538E-03   -0.37743E-01 10752   0.120E+00    0.226E-01
DAV:   2    -0.627679773571E+03   -0.11028E-02   -0.99692E-03 12900   0.214E-01    0.121E-01
DAV:   3    -0.627679842982E+03   -0.69410E-04   -0.53870E-04 11928   0.539E-02
  94 F= -.62767984E+03 E0= -.62767984E+03  d E =-.136424E-02  mag=    20.0000
       N       E                     dE             d eps       ncg     rms          rms(c)
DAV:   1    -0.627680306405E+03   -0.53283E-03   -0.11296E-01 10752   0.656E-01    0.841E-02
DAV:   2    -0.627680580754E+03   -0.27435E-03   -0.28322E-03 12612   0.113E-01    0.515E-02
DAV:   3    -0.627680571805E+03    0.89491E-05   -0.74359E-05  6444   0.240E-02
  95 F= -.62768057E+03 E0= -.62768057E+03  d E =-.728823E-03  mag=    20.0000
       N       E                     dE             d eps       ncg     rms          rms(c)
DAV:   1    -0.627679433428E+03    0.11473E-02   -0.11910E-01 10752   0.674E-01    0.125E-01
DAV:   2    -0.627679814142E+03   -0.38071E-03   -0.34191E-03 12660   0.127E-01    0.728E-02
DAV:   3    -0.627679834810E+03   -0.20668E-04   -0.12248E-04  6828   0.354E-02
  96 F= -.62767983E+03 E0= -.62767983E+03  d E =0.736995E-03  mag=    20.0000
       N       E                     dE             d eps       ncg     rms          rms(c)
DAV:   1    -0.627680259047E+03   -0.44491E-03   -0.14330E-01 10752   0.743E-01    0.920E-02
DAV:   2    -0.627680633383E+03   -0.37434E-03   -0.39872E-03 12216   0.133E-01    0.508E-02
DAV:   3    -0.627680634430E+03   -0.10469E-05   -0.88106E-05  6864   0.257E-02
  97 F= -.62768063E+03 E0= -.62768063E+03  d E =-.799620E-03  mag=    20.0000
       N       E                     dE             d eps       ncg     rms          rms(c)
DAV:   1    -0.627680867174E+03   -0.23379E-03   -0.36268E-02 10752   0.376E-01    0.715E-02
DAV:   2    -0.627680959305E+03   -0.92131E-04   -0.11139E-03 13356   0.822E-02    0.659E-02
DAV:   3    -0.627680955813E+03    0.34919E-05   -0.65817E-05  5868   0.303E-02
  98 F= -.62768096E+03 E0= -.62768096E+03  d E =-.321383E-03  mag=    20.0000
       N       E                     dE             d eps       ncg     rms          rms(c)
DAV:   1    -0.627681279164E+03   -0.31986E-03   -0.32591E-02 10752   0.353E-01    0.552E-02
DAV:   2    -0.627681352517E+03   -0.73354E-04   -0.85621E-04 11700   0.614E-02
  99 F= -.62768135E+03 E0= -.62768135E+03  d E =-.396705E-03  mag=    20.0000
       N       E                     dE             d eps       ncg     rms          rms(c)
DAV:   1    -0.627681803223E+03   -0.52406E-03   -0.21832E-01 10752   0.911E-01    0.133E-01
DAV:   2    -0.627682374789E+03   -0.57157E-03   -0.57436E-03 12780   0.160E-01    0.783E-02
DAV:   3    -0.627682379791E+03   -0.50018E-05   -0.17725E-04  8208   0.365E-02
 100 F= -.62768238E+03 E0= -.62768238E+03  d E =-.102727E-02  mag=    20.0000
       N       E                     dE             d eps       ncg     rms          rms(c)
DAV:   1    -0.627682772030E+03   -0.39724E-03   -0.64495E-02 10752   0.495E-01    0.654E-02
DAV:   2    -0.627682921646E+03   -0.14962E-03   -0.16271E-03 12480   0.838E-02    0.412E-02
DAV:   3    -0.627682914104E+03    0.75421E-05   -0.52481E-05  6084   0.181E-02
 101 F= -.62768291E+03 E0= -.62768291E+03  d E =-.534313E-03  mag=    20.0000
       N       E                     dE             d eps       ncg     rms          rms(c)
DAV:   1    -0.627683240420E+03   -0.31877E-03   -0.46518E-01 10752   0.133E+00    0.166E-01
DAV:   2    -0.627684363444E+03   -0.11230E-02   -0.12305E-02 13008   0.230E-01    0.111E-01
DAV:   3    -0.627684354389E+03    0.90542E-05   -0.51781E-04 11664   0.569E-02
 102 F= -.62768435E+03 E0= -.62768435E+03  d E =-.144029E-02  mag=    20.0000
       N       E                     dE             d eps       ncg     rms          rms(c)
DAV:   1    -0.627683991166E+03    0.37228E-03   -0.19296E-02 10752   0.273E-01    0.516E-02
DAV:   2    -0.627684046202E+03   -0.55036E-04   -0.66392E-04 10572   0.539E-02
 103 F= -.62768405E+03 E0= -.62768405E+03  d E =0.308187E-03  mag=    20.0000
       N       E                     dE             d eps       ncg     rms          rms(c)
DAV:   1    -0.627684625938E+03   -0.63477E-03   -0.12553E-01 10812   0.701E-01    0.124E-01
DAV:   2    -0.627684738951E+03   -0.11301E-03   -0.40062E-03 13872   0.139E-01    0.843E-02
DAV:   3    -0.627684707473E+03    0.31478E-04   -0.28274E-04  9504   0.509E-02
 104 F= -.62768471E+03 E0= -.62768471E+03  d E =-.661271E-03  mag=    20.0000
       N       E                     dE             d eps       ncg     rms          rms(c)
DAV:   1    -0.627685147663E+03   -0.40871E-03   -0.12868E-01 10752   0.701E-01    0.106E-01
DAV:   2    -0.627685471963E+03   -0.32430E-03   -0.34671E-03 12900   0.123E-01    0.610E-02
DAV:   3    -0.627685469548E+03    0.24154E-05   -0.12303E-04  6840   0.329E-02
 105 F= -.62768547E+03 E0= -.62768547E+03  d E =-.762075E-03  mag=    20.0000
       N       E                     dE             d eps       ncg     rms          rms(c)
DAV:   1    -0.627685691383E+03   -0.21942E-03   -0.13752E-02 10752   0.230E-01    0.423E-02
DAV:   2    -0.627685708357E+03   -0.16974E-04   -0.35346E-04  7824   0.430E-02
 106 F= -.62768571E+03 E0= -.62768571E+03  d E =-.238809E-03  mag=    20.0000
       N       E                     dE             d eps       ncg     rms          rms(c)
DAV:   1    -0.627685554916E+03    0.13647E-03   -0.86939E-01 10752   0.183E+00    0.380E-01
DAV:   2    -0.627687417729E+03   -0.18628E-02   -0.27052E-02 13956   0.366E-01    0.273E-01
DAV:   3    -0.627687392145E+03    0.25584E-04   -0.22915E-03 14280   0.127E-01    0.110E-01
DAV:   4    -0.627687299491E+03    0.92654E-04   -0.25389E-04  8256   0.472E-02
 107 F= -.62768730E+03 E0= -.62768730E+03  d E =-.159113E-02  mag=    20.0000
       N       E                     dE             d eps       ncg     rms          rms(c)
DAV:   1    -0.627686381974E+03    0.10102E-02   -0.20779E-01 10752   0.897E-01    0.237E-01
DAV:   2    -0.627686742236E+03   -0.36026E-03   -0.77095E-03 14628   0.206E-01    0.170E-01
DAV:   3    -0.627686716916E+03    0.25319E-04   -0.81391E-04 12396   0.802E-02
 108 F= -.62768672E+03 E0= -.62768672E+03  d E =0.582575E-03  mag=    20.0000
       N       E                     dE             d eps       ncg     rms          rms(c)
DAV:   1    -0.627687999546E+03   -0.12573E-02   -0.12115E-01 10968   0.726E-01    0.272E-01
DAV:   2    -0.627687239015E+03    0.76053E-03   -0.67998E-03 15432   0.195E-01    0.194E-01
DAV:   3    -0.627687090503E+03    0.14851E-03   -0.11054E-03 14712   0.942E-02    0.802E-02
DAV:   4    -0.627687031934E+03    0.58569E-04   -0.17287E-04  7080   0.377E-02
 109 F= -.62768703E+03 E0= -.62768703E+03  d E =-.315018E-03  mag=    20.0000
       N       E                     dE             d eps       ncg     rms          rms(c)
DAV:   1    -0.627687953526E+03   -0.86302E-03   -0.12025E-01 10752   0.692E-01    0.172E-01
DAV:   2    -0.627687915166E+03    0.38361E-04   -0.46678E-03 14736   0.158E-01    0.110E-01
DAV:   3    -0.627687858417E+03    0.56749E-04   -0.50449E-04 11388   0.686E-02
 110 F= -.62768786E+03 E0= -.62768786E+03  d E =-.826483E-03  mag=    20.0000
       N       E                     dE             d eps       ncg     rms          rms(c)
DAV:   1    -0.627688847964E+03   -0.93280E-03   -0.35978E-01 10752   0.119E+00    0.274E-01
DAV:   2    -0.627689022456E+03   -0.17449E-03   -0.12994E-02 14628   0.261E-01    0.217E-01
DAV:   3    -0.627688880206E+03    0.14225E-03   -0.13469E-03 14556   0.100E-01    0.972E-02
DAV:   4    -0.627688823859E+03    0.56347E-04   -0.14050E-04  6756   0.367E-02
 111 F= -.62768882E+03 E0= -.62768882E+03  d E =-.965442E-03  mag=    20.0000
       N       E                     dE             d eps       ncg     rms          rms(c)
DAV:   1    -0.627688904241E+03   -0.24036E-04   -0.50496E-03 10752   0.143E-01    0.793E-02
DAV:   2    -0.627688849237E+03    0.55005E-04   -0.54274E-04 11784   0.627E-02
 112 F= -.62768885E+03 E0= -.62768885E+03  d E =-.253781E-04  mag=    20.0000
       N       E                     dE             d eps       ncg     rms          rms(c)
DAV:   1    -0.627692101000E+03   -0.31968E-02   -0.25662E-01 11112   0.108E+00    0.467E-01
DAV:   2    -0.627689324601E+03    0.27764E-02   -0.18122E-02 15600   0.335E-01    0.325E-01
DAV:   3    -0.627688901631E+03    0.42297E-03   -0.32332E-03 15408   0.164E-01    0.145E-01
DAV:   4    -0.627688771800E+03    0.12983E-03   -0.76424E-04 13284   0.640E-02    0.785E-02
DAV:   5    -0.627688741465E+03    0.30335E-04   -0.16078E-04  7380   0.361E-02
 113 F= -.62768874E+03 E0= -.62768874E+03  d E =0.107772E-03  mag=    20.0000
       N       E                     dE             d eps       ncg     rms          rms(c)
DAV:   1    -0.627690308768E+03   -0.15370E-02   -0.61826E-02 10968   0.517E-01    0.209E-01
DAV:   2    -0.627689814869E+03    0.49390E-03   -0.39394E-03 15396   0.158E-01    0.147E-01
DAV:   3    -0.627689743174E+03    0.71695E-04   -0.58182E-04 12000   0.772E-02
 114 F= -.62768974E+03 E0= -.62768974E+03  d E =-.100171E-02  mag=    20.0000
       N       E                     dE             d eps       ncg     rms          rms(c)
DAV:   1    -0.627691051598E+03   -0.12367E-02   -0.11583E-01 11028   0.703E-01    0.258E-01
DAV:   2    -0.627690470283E+03    0.58132E-03   -0.65041E-03 15612   0.194E-01    0.186E-01
DAV:   3    -0.627690323020E+03    0.14726E-03   -0.10273E-03 14160   0.898E-02    0.819E-02
DAV:   4    -0.627690279183E+03    0.43837E-04   -0.13286E-04  7224   0.339E-02
 115 F= -.62769028E+03 E0= -.62769028E+03  d E =-.536009E-03  mag=    20.0000
       N       E                     dE             d eps       ncg     rms          rms(c)
DAV:   1    -0.627690578466E+03   -0.25545E-03   -0.90458E-02 10752   0.589E-01    0.815E-02
DAV:   2    -0.627690793244E+03   -0.21478E-03   -0.24375E-03 12828   0.103E-01    0.572E-02
DAV:   3    -0.627690792847E+03    0.39700E-06   -0.82786E-05  6156   0.234E-02
 116 F= -.62769079E+03 E0= -.62769079E+03  d E =-.513663E-03  mag=    20.0000
       N       E                     dE             d eps       ncg     rms          rms(c)
DAV:   1    -0.627687571471E+03    0.32218E-02   -0.59201E-01 10752   0.150E+00    0.189E-01
DAV:   2    -0.627689180337E+03   -0.16089E-02   -0.15151E-02 12180   0.256E-01    0.103E-01
DAV:   3    -0.627689235588E+03   -0.55251E-04   -0.61920E-04 12192   0.561E-02
 117 F= -.62768924E+03 E0= -.62768924E+03  d E =0.155726E-02  mag=    20.0000
       N       E                     dE             d eps       ncg     rms          rms(c)
DAV:   1    -0.627689241448E+03   -0.61111E-04   -0.32904E-02 10752   0.364E-01    0.114E-01
DAV:   2    -0.627689192925E+03    0.48523E-04   -0.13916E-03 13776   0.968E-02    0.848E-02
DAV:   3    -0.627689174965E+03    0.17959E-04   -0.13639E-04  7176   0.445E-02
 118 F= -.62768917E+03 E0= -.62768917E+03  d E =0.606226E-04  mag=    20.0000
       N       E                     dE             d eps       ncg     rms          rms(c)
DAV:   1    -0.627690183507E+03   -0.99058E-03   -0.34331E-01 10752   0.116E+00    0.290E-01
DAV:   2    -0.627690232509E+03   -0.49002E-04   -0.12873E-02 14748   0.269E-01    0.221E-01
DAV:   3    -0.627690123603E+03    0.10891E-03   -0.13930E-03 14736   0.107E-01    0.871E-02
DAV:   4    -0.627690063658E+03    0.59944E-04   -0.14286E-04  7872   0.354E-02
 119 F= -.62769006E+03 E0= -.62769006E+03  d E =-.888693E-03  mag=    20.0000
       N       E                     dE             d eps       ncg     rms          rms(c)
DAV:   1    -0.627690869569E+03   -0.74597E-03   -0.72973E-02 10788   0.541E-01    0.160E-01
DAV:   2    -0.627690760226E+03    0.10934E-03   -0.33646E-03 15672   0.143E-01    0.112E-01
DAV:   3    -0.627690713505E+03    0.46721E-04   -0.39075E-04 10944   0.637E-02
 120 F= -.62769071E+03 E0= -.62769071E+03  d E =-.649847E-03  mag=    20.0000
       N       E                     dE             d eps       ncg     rms          rms(c)
DAV:   1    -0.627690994679E+03   -0.23445E-03   -0.28387E-02 10752   0.331E-01    0.729E-02
DAV:   2    -0.627691030220E+03   -0.35541E-04   -0.10454E-03 13044   0.737E-02    0.561E-02
DAV:   3    -0.627691014957E+03    0.15262E-04   -0.82599E-05  6888   0.299E-02
 121 F= -.62769101E+03 E0= -.62769101E+03  d E =-.301452E-03  mag=    20.0000
       N       E                     dE             d eps       ncg     rms          rms(c)
DAV:   1    -0.627691337250E+03   -0.30703E-03   -0.20565E-01 10752   0.884E-01    0.110E-01
DAV:   2    -0.627691876933E+03   -0.53968E-03   -0.53354E-03 12420   0.151E-01    0.671E-02
DAV:   3    -0.627691880245E+03   -0.33126E-05   -0.17830E-04  7740   0.356E-02
 122 F= -.62769188E+03 E0= -.62769188E+03  d E =-.865288E-03  mag=    20.0000
       N       E                     dE             d eps       ncg     rms          rms(c)
DAV:   1    -0.627691861956E+03    0.14977E-04   -0.67786E-04  9672   0.522E-02    0.310E-02
DAV:   2    -0.627691854510E+03    0.74460E-05   -0.48097E-05  5700   0.205E-02
 123 F= -.62769185E+03 E0= -.62769185E+03  d E =0.257355E-04  mag=    20.0000
       N       E                     dE             d eps       ncg     rms          rms(c)
DAV:   1    -0.627692305265E+03   -0.44331E-03   -0.21902E-01 10752   0.919E-01    0.153E-01
DAV:   2    -0.627692679660E+03   -0.37439E-03   -0.64137E-03 13368   0.171E-01    0.103E-01
DAV:   3    -0.627692657695E+03    0.21966E-04   -0.31433E-04  9708   0.502E-02
 124 F= -.62769266E+03 E0= -.62769266E+03  d E =-.803185E-03  mag=    20.0000
       N       E                     dE             d eps       ncg     rms          rms(c)
DAV:   1    -0.627693034645E+03   -0.35499E-03   -0.10012E-01 10752   0.619E-01    0.794E-02
DAV:   2    -0.627693276829E+03   -0.24218E-03   -0.29001E-03 13680   0.116E-01    0.642E-02
DAV:   3    -0.627693264771E+03    0.12059E-04   -0.12351E-04  6672   0.308E-02
 125 F= -.62769326E+03 E0= -.62769326E+03  d E =-.607076E-03  mag=    20.0000
       N       E                     dE             d eps       ncg     rms          rms(c)
DAV:   1    -0.627693628389E+03   -0.35156E-03   -0.44853E-02 10752   0.419E-01    0.878E-02
DAV:   2    -0.627693665064E+03   -0.36676E-04   -0.14427E-03 13284   0.843E-02    0.600E-02
DAV:   3    -0.627693648138E+03    0.16926E-04   -0.99012E-05  7116   0.326E-02
 126 F= -.62769365E+03 E0= -.62769365E+03  d E =-.383367E-03  mag=    20.0000
       N       E                     dE             d eps       ncg     rms          rms(c)
DAV:   1    -0.627693966836E+03   -0.30177E-03   -0.84594E-02 10752   0.566E-01    0.724E-02
DAV:   2    -0.627694179188E+03   -0.21235E-03   -0.21573E-03 12528   0.959E-02    0.479E-02
DAV:   3    -0.627694178080E+03    0.11082E-05   -0.63963E-05  6012   0.228E-02
 127 F= -.62769418E+03 E0= -.62769418E+03  d E =-.529942E-03  mag=    20.0000
       N       E                     dE             d eps       ncg     rms          rms(c)
DAV:   1    -0.627694439742E+03   -0.26055E-03   -0.37854E-02 10752   0.378E-01    0.552E-02
DAV:   2    -0.627694529440E+03   -0.89698E-04   -0.95230E-04 12456   0.647E-02
 128 F= -.62769453E+03 E0= -.62769453E+03  d E =-.351360E-03  mag=    20.0000
       N       E                     dE             d eps       ncg     rms          rms(c)
DAV:   1    -0.627694659861E+03   -0.22012E-03   -0.65790E-02 10752   0.495E-01    0.119E-01
DAV:   2    -0.627694900806E+03   -0.24094E-03   -0.19425E-03 13068   0.977E-02    0.783E-02
DAV:   3    -0.627694912860E+03   -0.12055E-04   -0.94975E-05  6684   0.285E-02
 129 F= -.62769491E+03 E0= -.62769491E+03  d E =-.383420E-03  mag=    20.0000
       N       E                     dE             d eps       ncg     rms          rms(c)
DAV:   1    -0.627685792187E+03    0.91086E-02   -0.38992E+00 10752   0.384E+00    0.626E-01
DAV:   2    -0.627697854975E+03   -0.12063E-01   -0.10131E-01 12528   0.668E-01    0.353E-01
DAV:   3    -0.627698501795E+03   -0.64682E-03   -0.46179E-03 14796   0.149E-01    0.146E-01
DAV:   4    -0.627698247127E+03    0.25467E-03   -0.61480E-04 11940   0.640E-02    0.100E-01
DAV:   5    -0.627698158893E+03    0.88234E-04   -0.57501E-04 11688   0.598E-02
 130 F= -.62769816E+03 E0= -.62769816E+03  d E =-.324603E-02  mag=    20.0000
       N       E                     dE             d eps       ncg     rms          rms(c)
DAV:   1    -0.627680539736E+03    0.17707E-01   -0.43782E+00 10752   0.408E+00    0.695E-01
DAV:   2    -0.627694302094E+03   -0.13762E-01   -0.11412E-01 12228   0.712E-01    0.387E-01
DAV:   3    -0.627695149065E+03   -0.84697E-03   -0.52168E-03 14856   0.160E-01    0.148E-01
DAV:   4    -0.627694842152E+03    0.30691E-03   -0.69422E-04 12168   0.665E-02    0.941E-02
DAV:   5    -0.627694745655E+03    0.96497E-04   -0.56689E-04 11988   0.655E-02
 131 F= -.62769475E+03 E0= -.62769475E+03  d E =0.341324E-02  mag=    20.0000
       N       E                     dE             d eps       ncg     rms          rms(c)
DAV:   1    -0.627694484802E+03    0.35735E-03   -0.69715E-01 10752   0.163E+00    0.176E-01
DAV:   2    -0.627696231849E+03   -0.17470E-02   -0.18553E-02 12624   0.283E-01    0.119E-01
DAV:   3    -0.627696235264E+03   -0.34150E-05   -0.68523E-04 12444   0.591E-02
 132 F= -.62769624E+03 E0= -.62769624E+03  d E =-.148961E-02  mag=    20.0000
       N       E                     dE             d eps       ncg     rms          rms(c)
DAV:   1    -0.627696633535E+03   -0.40169E-03   -0.44951E-02 10908   0.423E-01    0.105E-01
DAV:   2    -0.627696606730E+03    0.26806E-04   -0.19459E-03 15180   0.116E-01    0.107E-01
DAV:   3    -0.627696565586E+03    0.41143E-04   -0.19619E-04  8088   0.411E-02
 133 F= -.62769657E+03 E0= -.62769657E+03  d E =-.330322E-03  mag=    20.0000
       N       E                     dE             d eps       ncg     rms          rms(c)
DAV:   1    -0.627696858648E+03   -0.25192E-03   -0.85294E-02 10752   0.570E-01    0.820E-02
DAV:   2    -0.627697081660E+03   -0.22301E-03   -0.21668E-03 12984   0.972E-02    0.523E-02
DAV:   3    -0.627697080737E+03    0.92219E-06   -0.55967E-05  6168   0.189E-02
 134 F= -.62769708E+03 E0= -.62769708E+03  d E =-.515151E-03  mag=    20.0000
       N       E                     dE             d eps       ncg     rms          rms(c)
DAV:   1    -0.627697350961E+03   -0.26930E-03   -0.60329E-02 10752   0.478E-01    0.613E-02
DAV:   2    -0.627697505594E+03   -0.15463E-03   -0.15897E-03 12984   0.835E-02    0.487E-02
DAV:   3    -0.627697502146E+03    0.34481E-05   -0.53954E-05  6024   0.194E-02
 135 F= -.62769750E+03 E0= -.62769750E+03  d E =-.421409E-03  mag=    20.0000
       N       E                     dE             d eps       ncg     rms          rms(c)
DAV:   1    -0.627697653702E+03   -0.14811E-03   -0.11459E-02 10704   0.209E-01    0.337E-02
DAV:   2    -0.627697672291E+03   -0.18590E-04   -0.26327E-04  6996   0.369E-02
 136 F= -.62769767E+03 E0= -.62769767E+03  d E =-.170145E-03  mag=    20.0000
       N       E                     dE             d eps       ncg     rms          rms(c)
DAV:   1    -0.627697890943E+03   -0.23724E-03   -0.13282E-01 10752   0.710E-01    0.109E-01
DAV:   2    -0.627698283227E+03   -0.39228E-03   -0.35502E-03 12756   0.123E-01    0.646E-02
DAV:   3    -0.627698293328E+03   -0.10100E-04   -0.12131E-04  7152   0.286E-02
 137 F= -.62769829E+03 E0= -.62769829E+03  d E =-.621037E-03  mag=    20.0000
       N       E                     dE             d eps       ncg     rms          rms(c)
DAV:   1    -0.627698340248E+03   -0.57021E-04   -0.41307E-01 10776   0.125E+00    0.148E-01
DAV:   2    -0.627699414199E+03   -0.10740E-02   -0.10452E-02 12540   0.207E-01    0.865E-02
[...]
DAV:   2    -0.627723573688E+03   -0.13875E-03   -0.14724E-03 13488   0.888E-02    0.605E-02
DAV:   3    -0.627723570812E+03    0.28763E-05   -0.72345E-05  6972   0.327E-02
 272 F= -.62772357E+03 E0= -.62772357E+03  d E =-.164912E-03  mag=    20.0000
       N       E                     dE             d eps       ncg     rms          rms(c)
DAV:   1    -0.627723645652E+03   -0.71964E-04   -0.10424E-02 10752   0.202E-01    0.451E-02
DAV:   2    -0.627723661681E+03   -0.16029E-04   -0.30428E-04  7860   0.452E-02
 273 F= -.62772366E+03 E0= -.62772366E+03  d E =-.908689E-04  mag=    20.0000
       N       E                     dE             d eps       ncg     rms          rms(c)
DAV:   1    -0.627723797748E+03   -0.15210E-03   -0.72566E-02 10752   0.534E-01    0.123E-01
DAV:   2    -0.627723863068E+03   -0.65320E-04   -0.25541E-03 14400   0.111E-01    0.950E-02
DAV:   3    -0.627723835324E+03    0.27744E-04   -0.17949E-04  8376   0.434E-02
 274 F= -.62772384E+03 E0= -.62772384E+03  d E =-.173643E-03  mag=    20.0000
       N       E                     dE             d eps       ncg     rms          rms(c)
DAV:   1    -0.627723816016E+03    0.47051E-04   -0.56947E-03 10776   0.154E-01    0.434E-02
DAV:   2    -0.627723808919E+03    0.70977E-05   -0.22378E-04  7212   0.371E-02
 275 F= -.62772381E+03 E0= -.62772381E+03  d E =0.264054E-04  mag=    20.0000
       N       E                     dE             d eps       ncg     rms          rms(c)
DAV:   1    -0.627723849229E+03   -0.33213E-04   -0.13025E-01 10752   0.719E-01    0.145E-01
DAV:   2    -0.627723951747E+03   -0.10252E-03   -0.43627E-03 13836   0.148E-01    0.950E-02
DAV:   3    -0.627723917263E+03    0.34484E-04   -0.28250E-04  9300   0.557E-02
 276 F= -.62772392E+03 E0= -.62772392E+03  d E =-.108344E-03  mag=    20.0000
       N       E                     dE             d eps       ncg     rms          rms(c)
DAV:   1    -0.627723961262E+03   -0.95153E-05   -0.59846E-02 10824   0.490E-01    0.126E-01
DAV:   2    -0.627723933462E+03    0.27799E-04   -0.23476E-03 14844   0.112E-01    0.102E-01
DAV:   3    -0.627723890562E+03    0.42900E-04   -0.19835E-04  8712   0.449E-02
 277 F= -.62772389E+03 E0= -.62772389E+03  d E =0.267002E-04  mag=    20.0000
       N       E                     dE             d eps       ncg     rms          rms(c)
DAV:   1    -0.627724981689E+03   -0.10482E-02   -0.60341E-01 10944   0.158E+00    0.415E-01
DAV:   2    -0.627724063556E+03    0.91813E-03   -0.23863E-02 14580   0.353E-01    0.276E-01
DAV:   3    -0.627723789175E+03    0.27438E-03   -0.27124E-03 14664   0.153E-01    0.121E-01
DAV:   4    -0.627723685541E+03    0.10363E-03   -0.51713E-04 11412   0.558E-02    0.724E-02
DAV:   5    -0.627723660705E+03    0.24836E-04   -0.11712E-04  6864   0.344E-02
 278 F= -.62772366E+03 E0= -.62772366E+03  d E =0.229857E-03  mag=    20.0000
       N       E                     dE             d eps       ncg     rms          rms(c)
DAV:   1    -0.627723859337E+03   -0.17380E-03   -0.17849E-01 10752   0.843E-01    0.168E-01
DAV:   2    -0.627724026116E+03   -0.16678E-03   -0.59590E-03 13284   0.176E-01    0.116E-01
DAV:   3    -0.627723991241E+03    0.34875E-04   -0.37618E-04 10500   0.643E-02
 279 F= -.62772399E+03 E0= -.62772399E+03  d E =-.330536E-03  mag=    20.0000
       N       E                     dE             d eps       ncg     rms          rms(c)
DAV:   1    -0.627724089159E+03   -0.63043E-04   -0.17844E-02 10764   0.259E-01    0.612E-02
DAV:   2    -0.627724146935E+03   -0.57776E-04   -0.82750E-04 12948   0.675E-02
 280 F= -.62772415E+03 E0= -.62772415E+03  d E =-.155694E-03  mag=    20.0000
       N       E                     dE             d eps       ncg     rms          rms(c)
DAV:   1    -0.627724171634E+03   -0.82475E-04   -0.43243E-03 10572   0.130E-01    0.453E-02
DAV:   2    -0.627724175621E+03   -0.39862E-05   -0.15729E-04  6804   0.334E-02
 281 F= -.62772418E+03 E0= -.62772418E+03  d E =-.286858E-04  mag=    20.0000
       N       E                     dE             d eps       ncg     rms          rms(c)
DAV:   1    -0.627724130236E+03    0.41399E-04   -0.11832E-02 10776   0.204E-01    0.695E-02
DAV:   2    -0.627724183912E+03   -0.53676E-04   -0.36903E-04  9696   0.485E-02
 282 F= -.62772418E+03 E0= -.62772418E+03  d E =-.829109E-05  mag=    20.0000
       N       E                     dE             d eps       ncg     rms          rms(c)
DAV:   1    -0.627724179168E+03   -0.48933E-04   -0.54781E-02 10752   0.457E-01    0.750E-02
DAV:   2    -0.627724343708E+03   -0.16454E-03   -0.22298E-03 14508   0.109E-01    0.930E-02
DAV:   3    -0.627724323610E+03    0.20099E-04   -0.11173E-04  6780   0.306E-02
 283 F= -.62772432E+03 E0= -.62772432E+03  d E =-.139698E-03  mag=    20.0000
       N       E                     dE             d eps       ncg     rms          rms(c)
DAV:   1    -0.627724373690E+03   -0.29982E-04   -0.13924E-03  9960   0.756E-02    0.515E-02
DAV:   2    -0.627724371203E+03    0.24873E-05   -0.20269E-04  7860   0.347E-02
 284 F= -.62772437E+03 E0= -.62772437E+03  d E =-.475930E-04  mag=    20.0000
       N       E                     dE             d eps       ncg     rms          rms(c)
DAV:   1    -0.627724429420E+03   -0.55729E-04   -0.45029E-02 10752   0.413E-01    0.539E-02
DAV:   2    -0.627724543679E+03   -0.11426E-03   -0.14446E-03 13428   0.836E-02    0.585E-02
DAV:   3    -0.627724538341E+03    0.53375E-05   -0.71498E-05  6240   0.217E-02
 285 F= -.62772454E+03 E0= -.62772454E+03  d E =-.167139E-03  mag=    20.0000
       N       E                     dE             d eps       ncg     rms          rms(c)
DAV:   1    -0.627724632481E+03   -0.88802E-04   -0.16174E-02 10752   0.251E-01    0.534E-02
DAV:   2    -0.627724652677E+03   -0.20196E-04   -0.60410E-04 11508   0.588E-02
 286 F= -.62772465E+03 E0= -.62772465E+03  d E =-.114336E-03  mag=    20.0000
       N       E                     dE             d eps       ncg     rms          rms(c)
DAV:   1    -0.627724704676E+03   -0.72195E-04   -0.10807E-02 10752   0.203E-01    0.368E-02
DAV:   2    -0.627724725410E+03   -0.20734E-04   -0.29444E-04  7740   0.418E-02
 287 F= -.62772473E+03 E0= -.62772473E+03  d E =-.727334E-04  mag=    20.0000
       N       E                     dE             d eps       ncg     rms          rms(c)
DAV:   1    -0.627724773045E+03   -0.68369E-04   -0.56627E-03 10656   0.146E-01    0.269E-02
DAV:   2    -0.627724783870E+03   -0.10825E-04   -0.13637E-04  6348   0.284E-02
 288 F= -.62772478E+03 E0= -.62772478E+03  d E =-.584597E-04  mag=    20.0000
       N       E                     dE             d eps       ncg     rms          rms(c)
DAV:   1    -0.627724713889E+03    0.59156E-04   -0.59442E-03 10692   0.153E-01    0.300E-02
DAV:   2    -0.627724720449E+03   -0.65602E-05   -0.16579E-04  6552   0.305E-02
 289 F= -.62772472E+03 E0= -.62772472E+03  d E =0.634207E-04  mag=    20.0000
       N       E                     dE             d eps       ncg     rms          rms(c)
DAV:   1    -0.627724777459E+03   -0.63570E-04   -0.25716E-02 10752   0.312E-01    0.422E-02
DAV:   2    -0.627724845492E+03   -0.68033E-04   -0.70665E-04 11604   0.582E-02
 290 F= -.62772485E+03 E0= -.62772485E+03  d E =-.125043E-03  mag=    20.0000
       N       E                     dE             d eps       ncg     rms          rms(c)
DAV:   1    -0.627724917096E+03   -0.13964E-03   -0.23054E-02 10752   0.299E-01    0.663E-02
DAV:   2    -0.627724942202E+03   -0.25106E-04   -0.85586E-04 12252   0.669E-02
 291 F= -.62772494E+03 E0= -.62772494E+03  d E =-.967098E-04  mag=    20.0000
       N       E                     dE             d eps       ncg     rms          rms(c)
DAV:   1    -0.627724979864E+03   -0.62768E-04   -0.47286E-03 10488   0.134E-01    0.318E-02
DAV:   2    -0.627724991170E+03   -0.11306E-04   -0.24076E-04  7872   0.375E-02
 292 F= -.62772499E+03 E0= -.62772499E+03  d E =-.489680E-04  mag=    20.0000
       N       E                     dE             d eps       ncg     rms          rms(c)
DAV:   1    -0.627725055973E+03   -0.76110E-04   -0.12515E-02 10776   0.218E-01    0.332E-02
DAV:   2    -0.627725080169E+03   -0.24196E-04   -0.31891E-04  7764   0.409E-02
 293 F= -.62772508E+03 E0= -.62772508E+03  d E =-.889993E-04  mag=    20.0000
       N       E                     dE             d eps       ncg     rms          rms(c)
DAV:   1    -0.627725065174E+03   -0.92001E-05   -0.21586E-03  9984   0.841E-02    0.259E-02
DAV:   2    -0.627725070093E+03   -0.49197E-05   -0.11107E-04  7176   0.261E-02
 294 F= -.62772507E+03 E0= -.62772507E+03  d E =0.100761E-04  mag=    20.0000
       N       E                     dE             d eps       ncg     rms          rms(c)
DAV:   1    -0.627725175642E+03   -0.11047E-03   -0.37876E-02 10752   0.383E-01    0.780E-02
DAV:   2    -0.627725211749E+03   -0.36108E-04   -0.14870E-03 13788   0.891E-02    0.718E-02
DAV:   3    -0.627725197558E+03    0.14191E-04   -0.93548E-05  6624   0.293E-02
 295 F= -.62772520E+03 E0= -.62772520E+03  d E =-.127465E-03  mag=    20.0000
       N       E                     dE             d eps       ncg     rms          rms(c)
DAV:   1    -0.627725259392E+03   -0.47643E-04   -0.91128E-03 10728   0.187E-01    0.274E-02
DAV:   2    -0.627725279782E+03   -0.20390E-04   -0.26451E-04  7632   0.367E-02
 296 F= -.62772528E+03 E0= -.62772528E+03  d E =-.822243E-04  mag=    20.0000
       N       E                     dE             d eps       ncg     rms          rms(c)
DAV:   1    -0.627725378547E+03   -0.11915E-03   -0.83673E-03 11112   0.187E-01    0.600E-02
DAV:   2    -0.627725348418E+03    0.30128E-04   -0.35528E-04  9012   0.500E-02
 297 F= -.62772535E+03 E0= -.62772535E+03  d E =-.686361E-04  mag=    20.0000
       N       E                     dE             d eps       ncg     rms          rms(c)
DAV:   1    -0.627725355034E+03    0.23512E-04   -0.29059E-03 10092   0.104E-01    0.356E-02
DAV:   2    -0.627725357148E+03   -0.21134E-05   -0.12615E-04  7452   0.322E-02
 298 F= -.62772536E+03 E0= -.62772536E+03  d E =-.872946E-05  mag=    20.0000
       N       E                     dE             d eps       ncg     rms          rms(c)
DAV:   1    -0.627725414557E+03   -0.59523E-04   -0.28840E-02 10752   0.333E-01    0.543E-02
DAV:   2    -0.627725492939E+03   -0.78382E-04   -0.11353E-03 13716   0.779E-02    0.618E-02
DAV:   3    -0.627725478310E+03    0.14629E-04   -0.66453E-05  6480   0.246E-02
 299 F= -.62772548E+03 E0= -.62772548E+03  d E =-.121162E-03  mag=    20.0000
       N       E                     dE             d eps       ncg     rms          rms(c)
DAV:   1    -0.627725629088E+03   -0.13615E-03   -0.64825E-03 11004   0.173E-01    0.908E-02
DAV:   2    -0.627725516177E+03    0.11291E-03   -0.74814E-04 13284   0.698E-02    0.671E-02
DAV:   3    -0.627725493463E+03    0.22714E-04   -0.11598E-04  7428   0.364E-02
 300 F= -.62772549E+03 E0= -.62772549E+03  d E =-.151531E-04  mag=    20.0000
       N       E                     dE             d eps       ncg     rms          rms(c)
DAV:   1    -0.627725557619E+03   -0.41442E-04   -0.69795E-03 10752   0.166E-01    0.386E-02
DAV:   2    -0.627725564199E+03   -0.65799E-05   -0.22448E-04  7128   0.416E-02
 301 F= -.62772556E+03 E0= -.62772556E+03  d E =-.707357E-04  mag=    20.0000
       N       E                     dE             d eps       ncg     rms          rms(c)
DAV:   1    -0.627725644059E+03   -0.86440E-04   -0.26007E-02 10908   0.321E-01    0.749E-02
DAV:   2    -0.627725658027E+03   -0.13967E-04   -0.92302E-04 12576   0.664E-02
 302 F= -.62772566E+03 E0= -.62772566E+03  d E =-.938279E-04  mag=    20.0000
       N       E                     dE             d eps       ncg     rms          rms(c)
DAV:   1    -0.627725710869E+03   -0.66810E-04   -0.10401E-02 10752   0.199E-01    0.376E-02
DAV:   2    -0.627725738710E+03   -0.27841E-04   -0.38235E-04  9276   0.467E-02
 303 F= -.62772574E+03 E0= -.62772574E+03  d E =-.806831E-04  mag=    20.0000
       N       E                     dE             d eps       ncg     rms          rms(c)
DAV:   1    -0.627725776988E+03   -0.66119E-04   -0.43563E-03 10512   0.131E-01    0.283E-02
DAV:   2    -0.627725781062E+03   -0.40741E-05   -0.13623E-04  6036   0.312E-02
 304 F= -.62772578E+03 E0= -.62772578E+03  d E =-.423523E-04  mag=    20.0000
       N       E                     dE             d eps       ncg     rms          rms(c)
DAV:   1    -0.627725847457E+03   -0.70468E-04   -0.27465E-02 10752   0.323E-01    0.406E-02
DAV:   2    -0.627725904620E+03   -0.57164E-04   -0.76308E-04 11592   0.585E-02
 305 F= -.62772590E+03 E0= -.62772590E+03  d E =-.123558E-03  mag=    20.0000
       N       E                     dE             d eps       ncg     rms          rms(c)
DAV:   1    -0.627725914646E+03   -0.67189E-04   -0.25029E-04  7680   0.329E-02    0.207E-02
DAV:   2    -0.627725911601E+03    0.30450E-05   -0.29043E-05  5808   0.166E-02
 306 F= -.62772591E+03 E0= -.62772591E+03  d E =-.698062E-05  mag=    20.0000
       N       E                     dE             d eps       ncg     rms          rms(c)
DAV:   1    -0.627725972303E+03   -0.57657E-04   -0.24330E-02 10752   0.304E-01    0.354E-02
DAV:   2    -0.627726026157E+03   -0.53854E-04   -0.64215E-04 10428   0.528E-02
 307 F= -.62772603E+03 E0= -.62772603E+03  d E =-.114555E-03  mag=    20.0000
       N       E                     dE             d eps       ncg     rms          rms(c)
DAV:   1    -0.627726081730E+03   -0.10943E-03   -0.94966E-03 10812   0.192E-01    0.425E-02
DAV:   2    -0.627726089330E+03   -0.75999E-05   -0.32428E-04  8568   0.463E-02
 308 F= -.62772609E+03 E0= -.62772609E+03  d E =-.631737E-04  mag=    20.0000
       N       E                     dE             d eps       ncg     rms          rms(c)
DAV:   1    -0.627726134481E+03   -0.52751E-04   -0.99169E-03 10788   0.195E-01    0.413E-02
DAV:   2    -0.627726147982E+03   -0.13500E-04   -0.27286E-04  7176   0.376E-02
 309 F= -.62772615E+03 E0= -.62772615E+03  d E =-.586516E-04  mag=    20.0000
       N       E                     dE             d eps       ncg     rms          rms(c)
DAV:   1    -0.627726196015E+03   -0.61534E-04   -0.75191E-03 10620   0.169E-01    0.272E-02
DAV:   2    -0.627726210712E+03   -0.14697E-04   -0.18573E-04  6576   0.326E-02
 310 F= -.62772621E+03 E0= -.62772621E+03  d E =-.627302E-04  mag=    20.0000
       N       E                     dE             d eps       ncg     rms          rms(c)
DAV:   1    -0.627726192009E+03    0.40062E-05   -0.10670E-03  9792   0.688E-02    0.281E-02
DAV:   2    -0.627726186201E+03    0.58084E-05   -0.58811E-05  5448   0.217E-02
 311 F= -.62772619E+03 E0= -.62772619E+03  d E =0.245112E-04  mag=    20.0000
       N       E                     dE             d eps       ncg     rms          rms(c)
DAV:   1    -0.627726285629E+03   -0.93619E-04   -0.37599E-02 10752   0.380E-01    0.588E-02
DAV:   2    -0.627726350493E+03   -0.64865E-04   -0.11418E-03 12684   0.738E-02    0.389E-02
DAV:   3    -0.627726345345E+03    0.51482E-05   -0.62264E-05  6192   0.245E-02
 312 F= -.62772635E+03 E0= -.62772635E+03  d E =-.159144E-03  mag=    20.0000
       N       E                     dE             d eps       ncg     rms          rms(c)
DAV:   1    -0.627726314867E+03    0.35626E-04   -0.12524E-03  9912   0.714E-02    0.167E-02
DAV:   2    -0.627726315585E+03   -0.71806E-06   -0.43186E-05  5484   0.164E-02
 313 F= -.62772632E+03 E0= -.62772632E+03  d E =0.297599E-04  mag=    20.0000
       N       E                     dE             d eps       ncg     rms          rms(c)
DAV:   1    -0.627726359365E+03   -0.44498E-04   -0.38383E-02 10752   0.381E-01    0.390E-02
DAV:   2    -0.627726456850E+03   -0.97485E-04   -0.10240E-03 11652   0.668E-02    0.273E-02
DAV:   3    -0.627726456195E+03    0.65511E-06   -0.29670E-05  5880   0.145E-02
 314 F= -.62772646E+03 E0= -.62772646E+03  d E =-.140609E-03  mag=    20.0000
       N       E                     dE             d eps       ncg     rms          rms(c)
DAV:   1    -0.627726519671E+03   -0.62821E-04   -0.66444E-03 10776   0.161E-01    0.361E-02
DAV:   2    -0.627726516236E+03    0.34351E-05   -0.20019E-04  6396   0.354E-02
 315 F= -.62772652E+03 E0= -.62772652E+03  d E =-.600414E-04  mag=    20.0000
       N       E                     dE             d eps       ncg     rms          rms(c)
DAV:   1    -0.627726538444E+03   -0.18773E-04   -0.36207E-03 10692   0.119E-01    0.289E-02
DAV:   2    -0.627726539576E+03   -0.11322E-05   -0.11481E-04  6420   0.301E-02
 316 F= -.62772654E+03 E0= -.62772654E+03  d E =-.233401E-04  mag=    20.0000
       N       E                     dE             d eps       ncg     rms          rms(c)
DAV:   1    -0.627726590684E+03   -0.52240E-04   -0.18563E-02 10752   0.267E-01    0.403E-02
DAV:   2    -0.627726635035E+03   -0.44351E-04   -0.60134E-04 11196   0.558E-02
 317 F= -.62772664E+03 E0= -.62772664E+03  d E =-.954585E-04  mag=    20.0000
       N       E                     dE             d eps       ncg     rms          rms(c)
DAV:   1    -0.627726677192E+03   -0.86508E-04   -0.62112E-03 10752   0.155E-01    0.317E-02
DAV:   2    -0.627726684144E+03   -0.69524E-05   -0.18506E-04  6876   0.343E-02
 318 F= -.62772668E+03 E0= -.62772668E+03  d E =-.491095E-04  mag=    20.0000
       N       E                     dE             d eps       ncg     rms          rms(c)
DAV:   1    -0.627726732367E+03   -0.55175E-04   -0.18673E-02 10752   0.266E-01    0.379E-02
DAV:   2    -0.627726774959E+03   -0.42592E-04   -0.49345E-04  9780   0.458E-02
 319 F= -.62772677E+03 E0= -.62772677E+03  d E =-.908148E-04  mag=    20.0000
       N       E                     dE             d eps       ncg     rms          rms(c)
DAV:   1    -0.627726793613E+03   -0.61246E-04   -0.94179E-04  9900   0.599E-02    0.163E-02
DAV:   2    -0.627726794798E+03   -0.11847E-05   -0.29251E-05  5604   0.132E-02
 320 F= -.62772679E+03 E0= -.62772679E+03  d E =-.198390E-04  mag=    20.0000
       N       E                     dE             d eps       ncg     rms          rms(c)
DAV:   1    -0.627726652161E+03    0.14145E-03   -0.19786E-02 10752   0.278E-01    0.514E-02
DAV:   2    -0.627726682664E+03   -0.30503E-04   -0.61044E-04 10020   0.542E-02
 321 F= -.62772668E+03 E0= -.62772668E+03  d E =0.112134E-03  mag=    20.0000
       N       E                     dE             d eps       ncg     rms          rms(c)
DAV:   1    -0.627726742172E+03   -0.90012E-04   -0.95911E-03 10752   0.194E-01    0.331E-02
DAV:   2    -0.627726757475E+03   -0.15302E-04   -0.25593E-04  6756   0.366E-02
 322 F= -.62772676E+03 E0= -.62772676E+03  d E =-.748105E-04  mag=    20.0000
       N       E                     dE             d eps       ncg     rms          rms(c)
DAV:   1    -0.627726750832E+03   -0.86597E-05   -0.10008E-01 10752   0.615E-01    0.651E-02
DAV:   2    -0.627726982786E+03   -0.23195E-03   -0.26918E-03 13068   0.104E-01    0.474E-02
DAV:   3    -0.627726974779E+03    0.80063E-05   -0.83675E-05  6312   0.250E-02
 323 F= -.62772697E+03 E0= -.62772697E+03  d E =-.217305E-03  mag=    20.0000
       N       E                     dE             d eps       ncg     rms          rms(c)
DAV:   1    -0.627727019212E+03   -0.36426E-04   -0.53816E-02 10752   0.456E-01    0.796E-02
DAV:   2    -0.627727097926E+03   -0.78714E-04   -0.18190E-03 13632   0.931E-02    0.652E-02
DAV:   3    -0.627727083754E+03    0.14172E-04   -0.93169E-05  6756   0.271E-02
 324 F= -.62772708E+03 E0= -.62772708E+03  d E =-.108975E-03  mag=    20.0000
       N       E                     dE             d eps       ncg     rms          rms(c)
DAV:   1    -0.627727159780E+03   -0.61853E-04   -0.30779E-02 10752   0.342E-01    0.499E-02
DAV:   2    -0.627727233344E+03   -0.73565E-04   -0.97048E-04 12156   0.657E-02
 325 F= -.62772723E+03 E0= -.62772723E+03  d E =-.149590E-03  mag=    20.0000
