       N       E                     dE             d eps       ncg     rms          rms(c)
DAV:   1     0.551255189220E+04    0.55126E+04   -0.19750E+05 21504   0.125E+03
DAV:   2     0.485781921580E+03   -0.50268E+04   -0.46258E+04 22284   0.349E+02
DAV:   3    -0.723267445717E+03   -0.12090E+04   -0.11710E+04 25176   0.178E+02
DAV:   4    -0.825614387442E+03   -0.10235E+03   -0.10091E+03 32172   0.590E+01
DAV:   5    -0.829358345486E+03   -0.37440E+01   -0.37011E+01 34020   0.127E+01
DAV:   6    -0.829517886123E+03   -0.15954E+00   -0.15838E+00 33972   0.234E+00
DAV:   7    -0.829526102290E+03   -0.82162E-02   -0.81876E-02 34128   0.532E-01
DAV:   8    -0.829526632996E+03   -0.53071E-03   -0.52976E-03 27984   0.118E-01
DAV:   9    -0.829526670798E+03   -0.37802E-04   -0.37741E-04 20100   0.361E-02
DAV:  10    -0.829526674855E+03   -0.40575E-05   -0.40421E-05 17772   0.167E-02
DAV:  11    -0.829526676364E+03   -0.15086E-05   -0.15017E-05 16488   0.115E-02
DAV:  12    -0.829526677231E+03   -0.86751E-06   -0.86450E-06 16104   0.860E-03    0.114E+02
DAV:  13    -0.615996201576E+03    0.21353E+03   -0.12725E+03 32220   0.825E+01    0.837E+01
DAV:  14    -0.678118568465E+03   -0.62122E+02   -0.58691E+02 36072   0.949E+01    0.106E+02
DAV:  15    -0.640149282275E+03    0.37969E+02   -0.46653E+02 33348   0.670E+01    0.674E+01
DAV:  16    -0.626056665068E+03    0.14093E+02   -0.20021E+02 33456   0.671E+01    0.900E+01
DAV:  17    -0.624909810875E+03    0.11469E+01   -0.35318E+02 35964   0.519E+01    0.542E+01
DAV:  18    -0.611895310088E+03    0.13015E+02   -0.38348E+01 32124   0.202E+01    0.391E+01
DAV:  19    -0.613489834778E+03   -0.15945E+01   -0.96369E+00 32040   0.767E+00    0.325E+01
DAV:  20    -0.614033473819E+03   -0.54364E+00   -0.72387E+00 34512   0.138E+01    0.340E+01
DAV:  21    -0.615010069632E+03   -0.97660E+00   -0.23741E+00 31656   0.423E+00    0.312E+01
DAV:  22    -0.615048395568E+03   -0.38326E-01   -0.33869E-01 27288   0.120E+00    0.311E+01
DAV:  23    -0.615475861273E+03   -0.42747E+00   -0.36540E-01 33780   0.177E+00    0.306E+01
DAV:  24    -0.616445683448E+03   -0.96982E+00   -0.39710E-01 35232   0.289E+00    0.304E+01
DAV:  25    -0.618982636640E+03   -0.25370E+01   -0.17583E+00 34692   0.609E+00    0.284E+01
DAV:  26    -0.624580031027E+03   -0.55974E+01   -0.22935E+01 36288   0.161E+01    0.225E+01
DAV:  27    -0.620979090273E+03    0.36009E+01   -0.32879E+01 36612   0.172E+01    0.218E+01
DAV:  28    -0.621557637585E+03   -0.57855E+00   -0.22503E+00 31212   0.434E+00    0.212E+01
DAV:  29    -0.621483309542E+03    0.74328E-01   -0.43247E-01 30852   0.197E+00    0.209E+01
DAV:  30    -0.621376542166E+03    0.10677E+00   -0.20294E-01 37704   0.261E+00    0.201E+01
DAV:  31    -0.621427336386E+03   -0.50794E-01   -0.28843E-01 38184   0.362E+00    0.189E+01
DAV:  32    -0.621692950296E+03   -0.26561E+00   -0.61797E-01 35760   0.400E+00    0.155E+01
DAV:  33    -0.621883544463E+03   -0.19059E+00   -0.31113E-01 33900   0.279E+00    0.161E+01
DAV:  34    -0.622745223118E+03   -0.86168E+00   -0.52352E-01 38508   0.449E+00    0.141E+01
DAV:  35    -0.623445434098E+03   -0.70021E+00   -0.33936E-01 36888   0.383E+00    0.137E+01
DAV:  36    -0.624036282030E+03   -0.59085E+00   -0.45912E-01 37320   0.388E+00    0.129E+01
DAV:  37    -0.624757204001E+03   -0.72092E+00   -0.11593E+00 37428   0.551E+00    0.112E+01
DAV:  38    -0.624775237151E+03   -0.18033E-01   -0.12142E+00 31788   0.289E+00    0.101E+01
DAV:  39    -0.624609776871E+03    0.16546E+00   -0.12818E-01 33504   0.171E+00    0.955E+00
DAV:  40    -0.624303840147E+03    0.30594E+00   -0.63398E-02 36960   0.227E+00    0.898E+00
DAV:  41    -0.623800024898E+03    0.50382E+00   -0.25966E-01 36072   0.498E+00    0.743E+00
DAV:  42    -0.623713865525E+03    0.86159E-01   -0.38422E-01 33408   0.208E+00    0.658E+00
DAV:  43    -0.623729492120E+03   -0.15627E-01   -0.83537E-02 26088   0.575E-01    0.664E+00
DAV:  44    -0.623746031398E+03   -0.16539E-01   -0.38690E-03 34752   0.255E-01    0.660E+00
DAV:  45    -0.623725437481E+03    0.20594E-01   -0.31892E-02 38664   0.121E+00    0.656E+00
DAV:  46    -0.623535092302E+03    0.19035E+00   -0.27810E-01 34488   0.242E+00    0.631E+00
DAV:  47    -0.623541158557E+03   -0.60663E-02   -0.60145E-02 26040   0.461E-01    0.634E+00
DAV:  48    -0.623554856956E+03   -0.13698E-01   -0.14373E-02 37824   0.379E-01    0.641E+00
DAV:  49    -0.623559968916E+03   -0.51120E-02   -0.30447E-03 27408   0.116E-01    0.642E+00
DAV:  50    -0.623562654940E+03   -0.26860E-02   -0.29207E-03 35568   0.202E-01    0.645E+00
DAV:  51    -0.623569496847E+03   -0.68419E-02   -0.13865E-03 33096   0.125E-01    0.647E+00
DAV:  52    -0.623569101105E+03    0.39574E-03   -0.17885E-02 36060   0.731E-01    0.639E+00
DAV:  53    -0.623500841675E+03    0.68259E-01   -0.99626E-02 37776   0.202E+00    0.619E+00
DAV:  54    -0.623343982202E+03    0.15686E+00   -0.17752E-01 37740   0.270E+00    0.588E+00
DAV:  55    -0.623310541925E+03    0.33440E-01   -0.18483E-01 31896   0.110E+00    0.569E+00
DAV:  56    -0.623331796967E+03   -0.21255E-01   -0.22536E-02 28848   0.469E-01    0.563E+00
DAV:  57    -0.623368879204E+03   -0.37082E-01   -0.26622E-02 38088   0.103E+00    0.551E+00
DAV:  58    -0.623886336997E+03   -0.51746E+00   -0.98579E+00 35280   0.624E+00    0.117E+01
DAV:  59    -0.623879915314E+03    0.64217E-02   -0.32274E-01 29088   0.117E+00    0.110E+01
DAV:  60    -0.623872812679E+03    0.71026E-02   -0.21677E-02 31392   0.331E-01    0.110E+01
DAV:  61    -0.623870424469E+03    0.23882E-02   -0.20137E-03 28836   0.849E-02    0.110E+01
DAV:  62    -0.623855529660E+03    0.14895E-01   -0.24239E-02 33948   0.558E-01    0.109E+01
DAV:  63    -0.626272161175E+03   -0.24166E+01   -0.10548E+01 35460   0.940E+00    0.213E+01
DAV:  64    -0.625561345818E+03    0.71082E+00   -0.48698E-01 32340   0.293E+00    0.204E+01
DAV:  65    -0.624995850542E+03    0.56550E+00   -0.32051E-01 33900   0.288E+00    0.205E+01
DAV:  66    -0.624394813081E+03    0.60104E+00   -0.19393E-01 35592   0.252E+00    0.194E+01
DAV:  67    -0.624508044417E+03   -0.11323E+00   -0.12859E-01 31596   0.110E+00    0.208E+01
DAV:  68    -0.624398836819E+03    0.10921E+00   -0.16013E-01 36240   0.226E+00    0.175E+01
DAV:  69    -0.624756637319E+03   -0.35780E+00   -0.10902E-01 37308   0.205E+00    0.175E+01
DAV:  70    -0.625013707977E+03   -0.25707E+00   -0.86051E-02 36324   0.165E+00    0.171E+01
DAV:  71    -0.625077312916E+03   -0.63605E-01   -0.57920E-02 31404   0.551E-01    0.170E+01
DAV:  72    -0.625077085041E+03    0.22788E-03   -0.63576E-03 31224   0.214E-01    0.169E+01
DAV:  73    -0.624577906552E+03    0.49918E+00   -0.19499E-01 37380   0.201E+00    0.135E+01
DAV:  74    -0.624591572104E+03   -0.13666E-01   -0.18023E-01 36168   0.127E+00    0.160E+01
DAV:  75    -0.624565602999E+03    0.25969E-01   -0.18522E-01 36756   0.137E+00    0.185E+01
DAV:  76    -0.624552282151E+03    0.13321E-01   -0.71229E-02 25140   0.471E-01    0.183E+01
DAV:  77    -0.624543004499E+03    0.92777E-02   -0.46960E-03 33252   0.139E-01    0.183E+01
DAV:  78    -0.624339601680E+03    0.20340E+00   -0.23425E-02 37980   0.960E-01    0.176E+01
DAV:  79    -0.624353111350E+03   -0.13510E-01   -0.69724E-03 29532   0.179E-01    0.176E+01
DAV:  80    -0.624346378249E+03    0.67331E-02   -0.98106E-04 31188   0.139E-01    0.176E+01
DAV:  81    -0.624317238562E+03    0.29140E-01   -0.48440E-02 37584   0.100E+00    0.182E+01
DAV:  82    -0.624250914310E+03    0.66324E-01   -0.82477E-02 34308   0.952E-01    0.186E+01
DAV:  83    -0.624750685233E+03   -0.49977E+00   -0.88917E-01 37164   0.365E+00    0.203E+01
DAV:  84    -0.624784381259E+03   -0.33696E-01   -0.24291E-01 32340   0.190E+00    0.200E+01
DAV:  85    -0.624789997961E+03   -0.56167E-02   -0.32835E-02 27612   0.519E-01    0.201E+01
DAV:  86    -0.624811867135E+03   -0.21869E-01   -0.37232E-03 37740   0.441E-01    0.202E+01
DAV:  87    -0.624791039171E+03    0.20828E-01   -0.23904E-03 32352   0.311E-01    0.201E+01
DAV:  88    -0.624642031996E+03    0.14901E+00   -0.10902E+00 33240   0.411E+00    0.188E+01
DAV:  89    -0.624075552727E+03    0.56648E+00   -0.10204E+00 36768   0.417E+00    0.172E+01
DAV:  90    -0.623750225097E+03    0.32533E+00   -0.78166E-01 36756   0.329E+00    0.102E+01
DAV:  91    -0.623932491290E+03   -0.18227E+00   -0.78839E-01 33768   0.308E+00    0.720E+00
DAV:  92    -0.624082218373E+03   -0.14973E+00   -0.39768E-01 34620   0.274E+00    0.517E+00
DAV:  93    -0.624161775153E+03   -0.79557E-01   -0.19807E-01 33252   0.148E+00    0.531E+00
DAV:  94    -0.624211566862E+03   -0.49792E-01   -0.24977E-01 34560   0.232E+00    0.511E+00
DAV:  95    -0.624274911148E+03   -0.63344E-01   -0.10506E-01 33132   0.149E+00    0.545E+00
DAV:  96    -0.624305003019E+03   -0.30092E-01   -0.45755E-02 33312   0.820E-01    0.534E+00
DAV:  97    -0.624376471752E+03   -0.71469E-01   -0.54324E-02 37716   0.147E+00    0.554E+00
DAV:  98    -0.624243447043E+03    0.13302E+00   -0.30657E+00 36768   0.622E+00    0.893E+00
DAV:  99    -0.624121435851E+03    0.12201E+00   -0.52964E-01 34164   0.251E+00    0.533E+00
DAV: 100    -0.624125909169E+03   -0.44733E-02   -0.54558E-01 35436   0.421E+00
   1 F= -.62412591E+03 E0= -.62410104E+03  d E =-.624126E+03  mag=    16.6203
       N       E                     dE             d eps       ncg     rms          rms(c)
DAV:   1    -0.627078750185E+03   -0.29573E+01   -0.50424E+02 21624   0.460E+01    0.168E+01
DAV:   2    -0.625871316391E+03    0.12074E+01   -0.41020E+01 32256   0.211E+01    0.161E+01
DAV:   3    -0.625266099366E+03    0.60522E+00   -0.63221E+00 31260   0.712E+00    0.880E+00
DAV:   4    -0.625102919722E+03    0.16318E+00   -0.20918E+00 31320   0.598E+00    0.859E+00
DAV:   5    -0.625072517565E+03    0.30402E-01   -0.30224E+00 33984   0.748E+00    0.691E+00
DAV:   6    -0.625106246644E+03   -0.33729E-01   -0.61752E-01 30960   0.193E+00    0.355E+00
DAV:   7    -0.625015818318E+03    0.90428E-01   -0.13437E-01 36192   0.230E+00    0.194E+00
DAV:   8    -0.625007113188E+03    0.87051E-02   -0.37863E-01 36012   0.269E+00    0.118E+00
DAV:   9    -0.625013458519E+03   -0.63453E-02   -0.36384E-01 30852   0.197E+00    0.775E-01
DAV:  10    -0.625015226385E+03   -0.17679E-02   -0.51612E-02 29820   0.668E-01    0.943E-01
DAV:  11    -0.625015412084E+03   -0.18570E-03   -0.16083E-02 33444   0.508E-01    0.408E-01
DAV:  12    -0.625018462573E+03   -0.30505E-02   -0.16652E-02 33024   0.454E-01    0.274E-01
DAV:  13    -0.625020077964E+03   -0.16154E-02   -0.66851E-03 31488   0.286E-01    0.209E-01
DAV:  14    -0.625021554209E+03   -0.14762E-02   -0.31714E-03 31380   0.196E-01    0.185E-01
DAV:  15    -0.625023354269E+03   -0.18001E-02   -0.36526E-03 30312   0.211E-01    0.173E-01
DAV:  16    -0.625025205909E+03   -0.18516E-02   -0.37999E-03 29916   0.212E-01    0.178E-01
DAV:  17    -0.625027286324E+03   -0.20804E-02   -0.52428E-03 30264   0.275E-01    0.155E-01
DAV:  18    -0.625029221075E+03   -0.19348E-02   -0.72450E-03 31560   0.321E-01    0.124E-01
DAV:  19    -0.625030877998E+03   -0.16569E-02   -0.86384E-03 31296   0.346E-01    0.119E-01
DAV:  20    -0.625032135855E+03   -0.12579E-02   -0.75728E-03 30828   0.307E-01    0.882E-02
DAV:  21    -0.625032958296E+03   -0.82244E-03   -0.33063E-03 26928   0.205E-01    0.779E-02
DAV:  22    -0.625033428517E+03   -0.47022E-03   -0.18301E-03 25752   0.172E-01    0.650E-02
DAV:  23    -0.625033758325E+03   -0.32981E-03   -0.15339E-03 25776   0.153E-01    0.536E-02
DAV:  24    -0.625034021542E+03   -0.26322E-03   -0.58927E-04 22980   0.874E-02    0.432E-02
DAV:  25    -0.625034175092E+03   -0.15355E-03   -0.50429E-04 19224   0.113E-01    0.355E-02
DAV:  26    -0.625034323636E+03   -0.14854E-03   -0.43087E-04 20112   0.597E-02    0.378E-02
DAV:  27    -0.625034392574E+03   -0.68938E-04   -0.16098E-04 13872   0.623E-02
   2 F= -.62503439E+03 E0= -.62502191E+03  d E =-.908483E+00  mag=    16.0059
       N       E                     dE             d eps       ncg     rms          rms(c)
DAV:   1    -0.627445310374E+03   -0.24110E+01   -0.68620E+01 22956   0.186E+01    0.106E+01
DAV:   2    -0.626170935771E+03    0.12744E+01   -0.10627E+01 32016   0.968E+00    0.980E+00
DAV:   3    -0.625875966182E+03    0.29497E+00   -0.23588E+00 31704   0.434E+00    0.394E+00
DAV:   4    -0.625847310997E+03    0.28655E-01   -0.23004E-01 32436   0.159E+00    0.316E+00
DAV:   5    -0.625846838957E+03    0.47204E-03   -0.39591E-01 33432   0.243E+00    0.256E+00
DAV:   6    -0.625840068465E+03    0.67705E-02   -0.15482E-01 32028   0.187E+00    0.110E+00
DAV:   7    -0.625866670542E+03   -0.26602E-01   -0.29450E-01 33696   0.224E+00    0.188E+00
DAV:   8    -0.625830103322E+03    0.36567E-01   -0.14515E-01 31848   0.147E+00    0.879E-01
DAV:   9    -0.625830439644E+03   -0.33632E-03   -0.26228E-02 32400   0.463E-01    0.314E-01
DAV:  10    -0.625830502458E+03   -0.62813E-04   -0.88516E-03 26628   0.220E-01    0.260E-01
DAV:  11    -0.625830523939E+03   -0.21481E-04   -0.17353E-03 31500   0.125E-01    0.153E-01
DAV:  12    -0.625830497356E+03    0.26583E-04   -0.96654E-04 21084   0.936E-02
   3 F= -.62583050E+03 E0= -.62581470E+03  d E =-.796105E+00  mag=    16.0084
       N       E                     dE             d eps       ncg     rms          rms(c)
DAV:   1    -0.625812887711E+03    0.17636E-01   -0.46447E+01 21504   0.135E+01    0.306E+00
DAV:   2    -0.625988124928E+03   -0.17524E+00   -0.21126E+00 29508   0.369E+00    0.373E+00
DAV:   3    -0.625972356857E+03    0.15768E-01   -0.19702E-01 30360   0.136E+00    0.232E+00
DAV:   4    -0.625963777388E+03    0.85795E-02   -0.71359E-02 30708   0.588E-01    0.183E+00
DAV:   5    -0.625963157408E+03    0.61998E-03   -0.33127E-02 31620   0.594E-01    0.958E-01
DAV:   6    -0.625960123222E+03    0.30342E-02   -0.15407E-02 32916   0.403E-01    0.401E-01
DAV:   7    -0.625960455650E+03   -0.33243E-03   -0.12166E-02 29928   0.223E-01    0.206E-01
DAV:   8    -0.625960433384E+03    0.22266E-04   -0.13148E-03 30780   0.129E-01    0.158E-01
DAV:   9    -0.625960528169E+03   -0.94785E-04   -0.87767E-04 28944   0.738E-02
   4 F= -.62596053E+03 E0= -.62595735E+03  d E =-.130031E+00  mag=    16.0059
       N       E                     dE             d eps       ncg     rms          rms(c)
DAV:   1    -0.626026423548E+03   -0.65990E-01   -0.41837E+00 21504   0.403E+00    0.946E-01
DAV:   2    -0.626038203296E+03   -0.11780E-01   -0.23405E-01 29688   0.124E+00    0.136E+00
DAV:   3    -0.626035862147E+03    0.23411E-02   -0.18763E-02 26952   0.327E-01    0.106E+00
DAV:   4    -0.626033004369E+03    0.28578E-02   -0.10391E-02 29196   0.202E-01    0.861E-01
DAV:   5    -0.626032191977E+03    0.81239E-03   -0.70161E-03 31392   0.217E-01    0.455E-01
DAV:   6    -0.626031697940E+03    0.49404E-03   -0.51038E-03 31716   0.190E-01    0.297E-01
DAV:   7    -0.626031670764E+03    0.27176E-04   -0.14804E-03 30132   0.974E-02    0.192E-01
DAV:   8    -0.626031653418E+03    0.17346E-04   -0.12904E-04 13716   0.379E-02
   5 F= -.62603165E+03 E0= -.62602860E+03  d E =-.711252E-01  mag=    16.0045
       N       E                     dE             d eps       ncg     rms          rms(c)
DAV:   1    -0.626032661060E+03   -0.99030E-03   -0.31536E+01 21768   0.112E+01    0.172E+00
DAV:   2    -0.626122652719E+03   -0.89992E-01   -0.93017E-01 30396   0.268E+00    0.151E+00
DAV:   3    -0.626126812203E+03   -0.41595E-02   -0.83273E-02 31500   0.976E-01    0.980E-01
DAV:   4    -0.626124683135E+03    0.21291E-02   -0.90623E-03 32184   0.249E-01    0.552E-01
DAV:   5    -0.626122757430E+03    0.19257E-02   -0.54755E-03 29592   0.212E-01    0.323E-01
DAV:   6    -0.626122916166E+03   -0.15874E-03   -0.43513E-03 29736   0.174E-01    0.180E-01
DAV:   7    -0.626122980987E+03   -0.64820E-04   -0.12856E-03 25992   0.797E-02    0.106E-01
DAV:   8    -0.626122972715E+03    0.82717E-05   -0.11487E-04 14520   0.481E-02
   6 F= -.62612297E+03 E0= -.62612296E+03  d E =-.913193E-01  mag=    16.0032
       N       E                     dE             d eps       ncg     rms          rms(c)
DAV:   1    -0.626159344441E+03   -0.36363E-01   -0.15107E+01 21504   0.776E+00    0.141E+00
DAV:   2    -0.626196557205E+03   -0.37213E-01   -0.53922E-01 28488   0.174E+00    0.133E+00
DAV:   3    -0.626194290761E+03    0.22664E-02   -0.37150E-02 30312   0.532E-01    0.772E-01
DAV:   4    -0.626191833855E+03    0.24569E-02   -0.14577E-02 32016   0.270E-01    0.515E-01
DAV:   5    -0.626191020293E+03    0.81356E-03   -0.39029E-03 31164   0.201E-01    0.215E-01
DAV:   6    -0.626191078784E+03   -0.58492E-04   -0.25811E-03 31656   0.134E-01    0.134E-01
DAV:   7    -0.626191066401E+03    0.12384E-04   -0.46246E-04 21552   0.512E-02
   7 F= -.62619107E+03 E0= -.62619106E+03  d E =-.680937E-01  mag=    16.0025
       N       E                     dE             d eps       ncg     rms          rms(c)
DAV:   1    -0.626088547986E+03    0.10253E+00   -0.73169E+01 21504   0.171E+01    0.236E+00
DAV:   2    -0.626272731749E+03   -0.18418E+00   -0.22598E+00 30444   0.382E+00    0.226E+00
DAV:   3    -0.626266782370E+03    0.59494E-02   -0.15893E-01 31032   0.115E+00    0.135E+00
DAV:   4    -0.626260866346E+03    0.59160E-02   -0.26962E-02 32772   0.477E-01    0.880E-01
DAV:   5    -0.626257227152E+03    0.36392E-02   -0.13542E-02 30756   0.317E-01    0.471E-01
DAV:   6    -0.626256875904E+03    0.35125E-03   -0.11611E-02 31080   0.283E-01    0.164E-01
DAV:   7    -0.626257024198E+03   -0.14829E-03   -0.34280E-03 28740   0.131E-01    0.110E-01
DAV:   8    -0.626257011360E+03    0.12838E-04   -0.25094E-04 16740   0.606E-02
   8 F= -.62625701E+03 E0= -.62625701E+03  d E =-.659450E-01  mag=    16.0018
       N       E                     dE             d eps       ncg     rms          rms(c)
DAV:   1    -0.626286980894E+03   -0.29957E-01   -0.24726E+00 21528   0.310E+00    0.103E+00
DAV:   2    -0.626283171245E+03    0.38096E-02   -0.17625E-01 31236   0.125E+00    0.113E+00
DAV:   3    -0.626280056259E+03    0.31150E-02   -0.32370E-02 31164   0.437E-01    0.725E-01
DAV:   4    -0.626278737385E+03    0.13189E-02   -0.86984E-03 31692   0.242E-01    0.558E-01
DAV:   5    -0.626278313585E+03    0.42380E-03   -0.31632E-03 31200   0.176E-01    0.270E-01
DAV:   6    -0.626278004199E+03    0.30939E-03   -0.25645E-03 31896   0.140E-01    0.123E-01
DAV:   7    -0.626278073008E+03   -0.68809E-04   -0.10356E-03 25380   0.629E-02    0.607E-02
DAV:   8    -0.626278062480E+03    0.10529E-04   -0.56967E-05 12768   0.327E-02
   9 F= -.62627806E+03 E0= -.62627806E+03  d E =-.210511E-01  mag=    16.0013
       N       E                     dE             d eps       ncg     rms          rms(c)
DAV:   1    -0.626284690824E+03   -0.66178E-02   -0.32143E+00 21504   0.355E+00    0.444E-01
DAV:   2    -0.626292576669E+03   -0.78858E-02   -0.89581E-02 26508   0.662E-01    0.315E-01
DAV:   3    -0.626292755114E+03   -0.17844E-03   -0.62824E-03 30576   0.180E-01    0.211E-01
DAV:   4    -0.626292485242E+03    0.26987E-03   -0.10738E-03 29976   0.951E-02    0.146E-01
DAV:   5    -0.626292406443E+03    0.78799E-04   -0.96224E-04 30948   0.888E-02
  10 F= -.62629241E+03 E0= -.62629241E+03  d E =-.143440E-01  mag=    16.0011
       N       E                     dE             d eps       ncg     rms          rms(c)
DAV:   1    -0.626297277549E+03   -0.47923E-02   -0.17575E+00 21504   0.264E+00    0.317E-01
DAV:   2    -0.626301663913E+03   -0.43864E-02   -0.53048E-02 27732   0.556E-01    0.332E-01
DAV:   3    -0.626301615092E+03    0.48821E-04   -0.42144E-03 30504   0.164E-01    0.211E-01
DAV:   4    -0.626301381650E+03    0.23344E-03   -0.98371E-04 28764   0.101E-01    0.166E-01
DAV:   5    -0.626301293179E+03    0.88471E-04   -0.63601E-04 26184   0.916E-02
  11 F= -.62630129E+03 E0= -.62630129E+03  d E =-.888674E-02  mag=    16.0009
       N       E                     dE             d eps       ncg     rms          rms(c)
DAV:   1    -0.626304694042E+03   -0.33124E-02   -0.37341E-01 21816   0.122E+00    0.206E-01
DAV:   2    -0.626305328936E+03   -0.63489E-03   -0.12578E-02 29424   0.259E-01    0.178E-01
DAV:   3    -0.626305268619E+03    0.60317E-04   -0.11972E-03 29352   0.900E-02    0.963E-02
DAV:   4    -0.626305222858E+03    0.45761E-04   -0.15323E-04 14580   0.434E-02
  12 F= -.62630522E+03 E0= -.62630522E+03  d E =-.392968E-02  mag=    16.0008
       N       E                     dE             d eps       ncg     rms          rms(c)
DAV:   1    -0.626309011930E+03   -0.37433E-02   -0.35056E+00 21504   0.370E+00    0.562E-01
DAV:   2    -0.626316707542E+03   -0.76956E-02   -0.11525E-01 28368   0.800E-01    0.596E-01
DAV:   3    -0.626316226373E+03    0.48117E-03   -0.11204E-02 29592   0.241E-01    0.365E-01
DAV:   4    -0.626315696634E+03    0.52974E-03   -0.43296E-03 32040   0.184E-01    0.302E-01
DAV:   5    -0.626315518155E+03    0.17848E-03   -0.18403E-03 31932   0.127E-01    0.159E-01
DAV:   6    -0.626315405729E+03    0.11243E-03   -0.72664E-04 27228   0.707E-02    0.938E-02
DAV:   7    -0.626315393129E+03    0.12600E-04   -0.34075E-04 17016   0.512E-02
  13 F= -.62631539E+03 E0= -.62631539E+03  d E =-.101703E-01  mag=    16.0006
       N       E                     dE             d eps       ncg     rms          rms(c)
DAV:   1    -0.626320555016E+03   -0.51493E-02   -0.84999E-01 21504   0.181E+00    0.314E-01
DAV:   2    -0.626322306778E+03   -0.17518E-02   -0.33934E-02 29388   0.506E-01    0.425E-01
DAV:   3    -0.626322224668E+03    0.82110E-04   -0.43807E-03 28464   0.147E-01    0.318E-01
DAV:   4    -0.626321900435E+03    0.32423E-03   -0.13193E-03 28236   0.984E-02    0.272E-01
DAV:   5    -0.626321863447E+03    0.36988E-04   -0.14105E-03 29544   0.994E-02    0.177E-01
DAV:   6    -0.626321758711E+03    0.10474E-03   -0.90882E-04 28080   0.756E-02    0.120E-01
DAV:   7    -0.626321709339E+03    0.49373E-04   -0.52821E-04 20592   0.493E-02
  14 F= -.62632171E+03 E0= -.62632171E+03  d E =-.631621E-02  mag=    16.0005
       N       E                     dE             d eps       ncg     rms          rms(c)
DAV:   1    -0.626325667212E+03   -0.39085E-02   -0.12447E+00 21504   0.223E+00    0.374E-01
DAV:   2    -0.626327768811E+03   -0.21016E-02   -0.41856E-02 29004   0.463E-01    0.318E-01
DAV:   3    -0.626327495681E+03    0.27313E-03   -0.35465E-03 29268   0.160E-01    0.148E-01
DAV:   4    -0.626327374194E+03    0.12149E-03   -0.74341E-04 27012   0.803E-02    0.116E-01
DAV:   5    -0.626327340263E+03    0.33931E-04   -0.24850E-04 16212   0.478E-02
  15 F= -.62632734E+03 E0= -.62632734E+03  d E =-.563092E-02  mag=    16.0004
       N       E                     dE             d eps       ncg     rms          rms(c)
DAV:   1    -0.626331202897E+03   -0.38287E-02   -0.51830E-01 21552   0.144E+00    0.299E-01
DAV:   2    -0.626331976494E+03   -0.77360E-03   -0.22362E-02 30204   0.378E-01    0.323E-01
DAV:   3    -0.626331705389E+03    0.27110E-03   -0.24364E-03 29616   0.126E-01    0.174E-01
DAV:   4    -0.626331617388E+03    0.88002E-04   -0.59583E-04 25332   0.708E-02
  16 F= -.62633162E+03 E0= -.62633162E+03  d E =-.427712E-02  mag=    16.0003
       N       E                     dE             d eps       ncg     rms          rms(c)
DAV:   1    -0.626334111507E+03   -0.24061E-02   -0.69015E-01 21504   0.164E+00    0.244E-01
DAV:   2    -0.626335645706E+03   -0.15342E-02   -0.20428E-02 28020   0.331E-01    0.229E-01
DAV:   3    -0.626335621399E+03    0.24306E-04   -0.22157E-03 28488   0.102E-01    0.140E-01
DAV:   4    -0.626335522924E+03    0.98476E-04   -0.75344E-04 26964   0.719E-02
  17 F= -.62633552E+03 E0= -.62633552E+03  d E =-.390554E-02  mag=    16.0003
       N       E                     dE             d eps       ncg     rms          rms(c)
DAV:   1    -0.626337485473E+03   -0.18641E-02   -0.12523E+00 21504   0.220E+00    0.349E-01
DAV:   2    -0.626340395458E+03   -0.29100E-02   -0.46927E-02 28944   0.552E-01    0.460E-01
DAV:   3    -0.626340117454E+03    0.27800E-03   -0.44071E-03 29580   0.162E-01    0.316E-01
DAV:   4    -0.626339802439E+03    0.31502E-03   -0.13106E-03 28236   0.105E-01    0.266E-01
DAV:   5    -0.626339714093E+03    0.88346E-04   -0.94143E-04 28176   0.934E-02
  18 F= -.62633971E+03 E0= -.62633971E+03  d E =-.419117E-02  mag=    16.0002
       N       E                     dE             d eps       ncg     rms          rms(c)
DAV:   1    -0.626342523116E+03   -0.27207E-02   -0.32537E-01 21576   0.112E+00    0.182E-01
DAV:   2    -0.626343326469E+03   -0.80335E-03   -0.12124E-02 29280   0.281E-01    0.240E-01
DAV:   3    -0.626343212206E+03    0.11426E-03   -0.11496E-03 27792   0.838E-02    0.142E-01
DAV:   4    -0.626343136811E+03    0.75395E-04   -0.42747E-04 20556   0.570E-02
  19 F= -.62634314E+03 E0= -.62634314E+03  d E =-.342272E-02  mag=    16.0002
       N       E                     dE             d eps       ncg     rms          rms(c)
DAV:   1    -0.626345341211E+03   -0.21290E-02   -0.12891E+00 21504   0.224E+00    0.269E-01
DAV:   2    -0.626348493181E+03   -0.31520E-02   -0.35673E-02 26208   0.412E-01    0.194E-01
DAV:   3    -0.626348462781E+03    0.30399E-04   -0.19227E-03 30540   0.110E-01    0.110E-01
DAV:   4    -0.626348360099E+03    0.10268E-03   -0.15832E-04 14532   0.522E-02    0.801E-02
DAV:   5    -0.626348347680E+03    0.12419E-04   -0.49641E-04 20052   0.501E-02
  20 F= -.62634835E+03 E0= -.62634835E+03  d E =-.521087E-02  mag=    16.0002
       N       E                     dE             d eps       ncg     rms          rms(c)
DAV:   1    -0.626350284422E+03   -0.19243E-02   -0.37641E-01 21528   0.122E+00    0.234E-01
DAV:   2    -0.626350889794E+03   -0.60537E-03   -0.13837E-02 29040   0.276E-01    0.223E-01
DAV:   3    -0.626350783734E+03    0.10606E-03   -0.14941E-03 28572   0.970E-02    0.111E-01
DAV:   4    -0.626350737214E+03    0.46520E-04   -0.37992E-04 20916   0.561E-02
  21 F= -.62635074E+03 E0= -.62635074E+03  d E =-.238953E-02  mag=    16.0001
       N       E                     dE             d eps       ncg     rms          rms(c)
DAV:   1    -0.626351405864E+03   -0.62213E-03   -0.19009E+00 21504   0.273E+00    0.296E-01
DAV:   2    -0.626356344273E+03   -0.49384E-02   -0.52795E-02 26256   0.516E-01    0.270E-01
DAV:   3    -0.626356309885E+03    0.34388E-04   -0.29722E-03 29940   0.136E-01    0.150E-01
DAV:   4    -0.626356154232E+03    0.15565E-03   -0.45502E-04 23292   0.784E-02    0.124E-01
DAV:   5    -0.626356101589E+03    0.52643E-04   -0.62465E-04 25032   0.721E-02
  22 F= -.62635610E+03 E0= -.62635610E+03  d E =-.536437E-02  mag=    16.0001
       N       E                     dE             d eps       ncg     rms          rms(c)
DAV:   1    -0.626356935843E+03   -0.78161E-03   -0.70578E-02 21744   0.527E-01    0.168E-01
DAV:   2    -0.626356732997E+03    0.20285E-03   -0.33873E-03 28908   0.163E-01    0.142E-01
DAV:   3    -0.626356686405E+03    0.46592E-04   -0.66920E-04 25272   0.663E-02
  23 F= -.62635669E+03 E0= -.62635669E+03  d E =-.584816E-03  mag=    16.0001
       N       E                     dE             d eps       ncg     rms          rms(c)
DAV:   1    -0.626358034376E+03   -0.13014E-02   -0.72044E-01 21504   0.168E+00    0.201E-01
DAV:   2    -0.626359841546E+03   -0.18072E-02   -0.20438E-02 26256   0.317E-01    0.168E-01
DAV:   3    -0.626359827324E+03    0.14221E-04   -0.11502E-03 29124   0.887E-02    0.940E-02
DAV:   4    -0.626359756338E+03    0.70987E-04   -0.17214E-04 15960   0.452E-02
  24 F= -.62635976E+03 E0= -.62635976E+03  d E =-.306993E-02  mag=    16.0001
       N       E                     dE             d eps       ncg     rms          rms(c)
DAV:   1    -0.626360713159E+03   -0.88584E-03   -0.98287E-02 21696   0.619E-01    0.779E-02
DAV:   2    -0.626360923022E+03   -0.20986E-03   -0.29693E-03 28068   0.130E-01    0.874E-02
DAV:   3    -0.626360898450E+03    0.24572E-04   -0.17429E-04 15444   0.386E-02
  25 F= -.62636090E+03 E0= -.62636090E+03  d E =-.114211E-02  mag=    16.0001
       N       E                     dE             d eps       ncg     rms          rms(c)
DAV:   1    -0.626362231613E+03   -0.13086E-02   -0.50105E-01 21504   0.140E+00    0.195E-01
DAV:   2    -0.626363348633E+03   -0.11170E-02   -0.14285E-02 26460   0.264E-01    0.167E-01
DAV:   3    -0.626363289326E+03    0.59307E-04   -0.82558E-04 26940   0.757E-02
  26 F= -.62636329E+03 E0= -.62636329E+03  d E =-.239088E-02  mag=    16.0001
       N       E                     dE             d eps       ncg     rms          rms(c)
DAV:   1    -0.626364447059E+03   -0.10984E-02   -0.38817E-01 21504   0.123E+00    0.155E-01
DAV:   2    -0.626365419883E+03   -0.97282E-03   -0.11835E-02 27480   0.255E-01    0.173E-01
DAV:   3    -0.626365352053E+03    0.67830E-04   -0.85354E-04 26220   0.723E-02
  27 F= -.62636535E+03 E0= -.62636535E+03  d E =-.206273E-02  mag=    16.0001
       N       E                     dE             d eps       ncg     rms          rms(c)
DAV:   1    -0.626366275083E+03   -0.85520E-03   -0.12589E-01 21600   0.698E-01    0.104E-01
DAV:   2    -0.626366545264E+03   -0.27018E-03   -0.34900E-03 27132   0.129E-01    0.679E-02
DAV:   3    -0.626366508241E+03    0.37023E-04   -0.15712E-04 16080   0.392E-02
  28 F= -.62636651E+03 E0= -.62636651E+03  d E =-.115619E-02  mag=    16.0001
       N       E                     dE             d eps       ncg     rms          rms(c)
DAV:   1    -0.626366437731E+03    0.10753E-03   -0.15507E+00 21504   0.246E+00    0.273E-01
DAV:   2    -0.626370301870E+03   -0.38641E-02   -0.41391E-02 25344   0.442E-01    0.218E-01
DAV:   3    -0.626370307977E+03   -0.61072E-05   -0.20180E-03 30540   0.109E-01    0.139E-01
DAV:   4    -0.626370198681E+03    0.10930E-03   -0.16244E-04 14268   0.436E-02    0.935E-02
DAV:   5    -0.626370161209E+03    0.37472E-04   -0.62099E-04 23364   0.575E-02
  29 F= -.62637016E+03 E0= -.62637016E+03  d E =-.365297E-02  mag=    16.0001
       N       E                     dE             d eps       ncg     rms          rms(c)
DAV:   1    -0.626371318024E+03   -0.11193E-02   -0.55270E-01 21504   0.146E+00    0.211E-01
DAV:   2    -0.626372424187E+03   -0.11062E-02   -0.15293E-02 26724   0.284E-01    0.161E-01
DAV:   3    -0.626372450049E+03   -0.25862E-04   -0.13668E-03 30528   0.893E-02    0.961E-02
DAV:   4    -0.626372388594E+03    0.61454E-04   -0.13200E-04 15072   0.369E-02
  30 F= -.62637239E+03 E0= -.62637239E+03  d E =-.222739E-02  mag=    16.0000
       N       E                     dE             d eps       ncg     rms          rms(c)
DAV:   1    -0.626353273775E+03    0.19176E-01   -0.11563E+01 21504   0.670E+00    0.728E-01
DAV:   2    -0.626381440038E+03   -0.28166E-01   -0.29673E-01 23292   0.114E+00    0.403E-01
DAV:   3    -0.626381578490E+03   -0.13845E-03   -0.11962E-02 30636   0.249E-01    0.248E-01
DAV:   4    -0.626381025467E+03    0.55302E-03   -0.15568E-03 31428   0.117E-01    0.154E-01
DAV:   5    -0.626380685717E+03    0.33975E-03   -0.12109E-03 29496   0.103E-01    0.776E-02
DAV:   6    -0.626380705612E+03   -0.19895E-04   -0.53049E-04 23460   0.522E-02
  31 F= -.62638071E+03 E0= -.62638071E+03  d E =-.831702E-02  mag=    16.0000
       N       E                     dE             d eps       ncg     rms          rms(c)
DAV:   1    -0.626381190810E+03   -0.50509E-03   -0.16026E-01 21756   0.826E-01    0.307E-01
DAV:   2    -0.626380473164E+03    0.71765E-03   -0.91377E-03 31956   0.281E-01    0.247E-01
DAV:   3    -0.626380339557E+03    0.13361E-03   -0.15093E-03 31272   0.120E-01    0.130E-01
DAV:   4    -0.626380265677E+03    0.73880E-04   -0.31011E-04 20364   0.528E-02
  32 F= -.62638027E+03 E0= -.62638027E+03  d E =0.439935E-03  mag=    16.0000
       N       E                     dE             d eps       ncg     rms          rms(c)
DAV:   1    -0.626375678641E+03    0.46609E-02   -0.34070E+00 21504   0.364E+00    0.381E-01
DAV:   2    -0.626384400325E+03   -0.87217E-02   -0.89039E-02 23232   0.629E-01    0.233E-01
DAV:   3    -0.626384475576E+03   -0.75251E-04   -0.34639E-03 31632   0.132E-01    0.144E-01
DAV:   4    -0.626384299042E+03    0.17653E-03   -0.32927E-04 19644   0.628E-02    0.102E-01
DAV:   5    -0.626384192896E+03    0.10615E-03   -0.59869E-04 23208   0.678E-02    0.492E-02
DAV:   6    -0.626384195731E+03   -0.28347E-05   -0.18202E-04 14232   0.353E-02
  33 F= -.62638420E+03 E0= -.62638420E+03  d E =-.393005E-02  mag=    16.0000
       N       E                     dE             d eps       ncg     rms          rms(c)
DAV:   1    -0.626378385875E+03    0.58070E-02   -0.14181E+00 21504   0.235E+00    0.238E-01
DAV:   2    -0.626382013009E+03   -0.36271E-02   -0.36347E-02 23292   0.401E-01    0.147E-01
DAV:   3    -0.626382048727E+03   -0.35718E-04   -0.14116E-03 29784   0.800E-02    0.818E-02
DAV:   4    -0.626381959395E+03    0.89332E-04   -0.99033E-05 14220   0.406E-02
  34 F= -.62638196E+03 E0= -.62638196E+03  d E =0.223634E-02  mag=    16.0000
       N       E                     dE             d eps       ncg     rms          rms(c)
DAV:   1    -0.626381225220E+03    0.82351E-03   -0.11785E-01 21624   0.686E-01    0.146E-01
DAV:   2    -0.626381316848E+03   -0.91628E-04   -0.34898E-03 29244   0.144E-01    0.122E-01
DAV:   3    -0.626381285667E+03    0.31181E-04   -0.29919E-04 18588   0.537E-02
  35 F= -.62638129E+03 E0= -.62638129E+03  d E =0.673727E-03  mag=    16.0000
       N       E                     dE             d eps       ncg     rms          rms(c)
DAV:   1    -0.626381590711E+03   -0.27386E-03   -0.35160E-01 21504   0.117E+00    0.133E-01
DAV:   2    -0.626382532370E+03   -0.94166E-03   -0.95229E-03 23892   0.204E-01    0.881E-02
DAV:   3    -0.626382536173E+03   -0.38027E-05   -0.29684E-04 17844   0.457E-02
  36 F= -.62638254E+03 E0= -.62638254E+03  d E =-.125051E-02  mag=    16.0000
       N       E                     dE             d eps       ncg     rms          rms(c)
DAV:   1    -0.626382951571E+03   -0.41920E-03   -0.68333E-02 21600   0.515E-01    0.672E-02
DAV:   2    -0.626383094328E+03   -0.14276E-03   -0.18211E-03 26352   0.949E-02    0.545E-02
DAV:   3    -0.626383079110E+03    0.15218E-04   -0.73300E-05 12564   0.269E-02
  37 F= -.62638308E+03 E0= -.62638308E+03  d E =-.542937E-03  mag=    16.0000
       N       E                     dE             d eps       ncg     rms          rms(c)
DAV:   1    -0.626383359767E+03   -0.26544E-03   -0.31469E-02 21672   0.352E-01    0.606E-02
DAV:   2    -0.626383412210E+03   -0.52443E-04   -0.93990E-04 24624   0.725E-02
  38 F= -.62638341E+03 E0= -.62638341E+03  d E =-.333101E-03  mag=    16.0000
       N       E                     dE             d eps       ncg     rms          rms(c)
DAV:   1    -0.626383847350E+03   -0.48758E-03   -0.11087E-01 21528   0.654E-01    0.903E-02
DAV:   2    -0.626384097450E+03   -0.25010E-03   -0.29656E-03 26952   0.120E-01    0.617E-02
DAV:   3    -0.626384085457E+03    0.11993E-04   -0.12371E-04 13428   0.324E-02
  39 F= -.62638409E+03 E0= -.62638409E+03  d E =-.673247E-03  mag=    16.0000
       N       E                     dE             d eps       ncg     rms          rms(c)
DAV:   1    -0.626384499674E+03   -0.40222E-03   -0.12927E-01 21528   0.707E-01    0.861E-02
DAV:   2    -0.626384782539E+03   -0.28286E-03   -0.33225E-03 25380   0.121E-01    0.535E-02
DAV:   3    -0.626384771598E+03    0.10940E-04   -0.99653E-05 13164   0.267E-02
  40 F= -.62638477E+03 E0= -.62638477E+03  d E =-.686141E-03  mag=    16.0000
       N       E                     dE             d eps       ncg     rms          rms(c)
DAV:   1    -0.626385037292E+03   -0.25475E-03   -0.40785E-01 21504   0.126E+00    0.135E-01
DAV:   2    -0.626385990805E+03   -0.95351E-03   -0.10605E-02 24564   0.213E-01    0.830E-02
DAV:   3    -0.626385964066E+03    0.26738E-04   -0.39564E-04 20844   0.488E-02
  41 F= -.62638596E+03 E0= -.62638596E+03  d E =-.119247E-02  mag=    16.0000
       N       E                     dE             d eps       ncg     rms          rms(c)
DAV:   1    -0.626385371783E+03    0.61902E-03   -0.10018E+00 21504   0.196E+00    0.206E-01
DAV:   2    -0.626387782956E+03   -0.24112E-02   -0.24807E-02 23652   0.324E-01    0.117E-01
DAV:   3    -0.626387768488E+03    0.14468E-04   -0.92015E-04 26568   0.610E-02
  42 F= -.62638777E+03 E0= -.62638777E+03  d E =-.180442E-02  mag=    16.0000
       N       E                     dE             d eps       ncg     rms          rms(c)
DAV:   1    -0.626388092296E+03   -0.30934E-03   -0.12124E-01 21552   0.682E-01    0.988E-02
DAV:   2    -0.626388273780E+03   -0.18148E-03   -0.29004E-03 25884   0.117E-01    0.615E-02
DAV:   3    -0.626388248700E+03    0.25079E-04   -0.12258E-04 14232   0.315E-02
  43 F= -.62638825E+03 E0= -.62638825E+03  d E =-.480212E-03  mag=    16.0000
       N       E                     dE             d eps       ncg     rms          rms(c)
DAV:   1    -0.626388474151E+03   -0.20037E-03   -0.38895E-02 21696   0.387E-01    0.530E-02
DAV:   2    -0.626388570369E+03   -0.96219E-04   -0.10494E-03 23904   0.708E-02    0.412E-02
DAV:   3    -0.626388567479E+03    0.28901E-05   -0.42310E-05 12108   0.199E-02
  44 F= -.62638857E+03 E0= -.62638857E+03  d E =-.318779E-03  mag=    16.0000
       N       E                     dE             d eps       ncg     rms          rms(c)
DAV:   1    -0.626388795168E+03   -0.22480E-03   -0.59294E-02 21564   0.479E-01    0.690E-02
DAV:   2    -0.626388933767E+03   -0.13860E-03   -0.16032E-03 24960   0.851E-02    0.462E-02
DAV:   3    -0.626388930222E+03    0.35450E-05   -0.58541E-05 11928   0.229E-02
  45 F= -.62638893E+03 E0= -.62638893E+03  d E =-.362742E-03  mag=    16.0000
       N       E                     dE             d eps       ncg     rms          rms(c)
DAV:   1    -0.626389206354E+03   -0.27259E-03   -0.57002E-02 21552   0.471E-01    0.686E-02
DAV:   2    -0.626389307303E+03   -0.10095E-03   -0.15746E-03 26316   0.869E-02    0.454E-02
DAV:   3    -0.626389300329E+03    0.69742E-05   -0.67582E-05 12552   0.269E-02
  46 F= -.62638930E+03 E0= -.62638930E+03  d E =-.370108E-03  mag=    16.0000
       N       E                     dE             d eps       ncg     rms          rms(c)
DAV:   1    -0.626389537140E+03   -0.22984E-03   -0.11081E-01 21552   0.654E-01    0.768E-02
DAV:   2    -0.626389797898E+03   -0.26076E-03   -0.28355E-03 24204   0.109E-01    0.426E-02
DAV:   3    -0.626389791163E+03    0.67342E-05   -0.76576E-05 13140   0.236E-02
  47 F= -.62638979E+03 E0= -.62638979E+03  d E =-.490834E-03  mag=    16.0000
       N       E                     dE             d eps       ncg     rms          rms(c)
DAV:   1    -0.626389988540E+03   -0.19064E-03   -0.33290E-02 21600   0.358E-01    0.502E-02
DAV:   2    -0.626390057059E+03   -0.68519E-04   -0.87928E-04 24000   0.634E-02
  48 F= -.62639006E+03 E0= -.62639006E+03  d E =-.265896E-03  mag=    16.0000
       N       E                     dE             d eps       ncg     rms          rms(c)
DAV:   1    -0.626390157230E+03   -0.16869E-03   -0.35079E-02 21576   0.362E-01    0.827E-02
DAV:   2    -0.626390286673E+03   -0.12944E-03   -0.11498E-03 27132   0.823E-02    0.746E-02
DAV:   3    -0.626390281810E+03    0.48627E-05   -0.69842E-05 12984   0.287E-02
  49 F= -.62639028E+03 E0= -.62639028E+03  d E =-.224751E-03  mag=    16.0000
       N       E                     dE             d eps       ncg     rms          rms(c)
DAV:   1    -0.626390478905E+03   -0.19223E-03   -0.94773E-02 21552   0.604E-01    0.767E-02
DAV:   2    -0.626390725829E+03   -0.24692E-03   -0.24178E-03 24300   0.103E-01    0.467E-02
DAV:   3    -0.626390722632E+03    0.31961E-05   -0.55850E-05 12144   0.214E-02
  50 F= -.62639072E+03 E0= -.62639072E+03  d E =-.440822E-03  mag=    16.0000
       N       E                     dE             d eps       ncg     rms          rms(c)
DAV:   1    -0.626390962677E+03   -0.23685E-03   -0.12492E-01 21528   0.702E-01    0.118E-01
DAV:   2    -0.626391180023E+03   -0.21735E-03   -0.45152E-03 29256   0.156E-01    0.124E-01
DAV:   3    -0.626391123559E+03    0.56464E-04   -0.30200E-04 18372   0.503E-02
  51 F= -.62639112E+03 E0= -.62639112E+03  d E =-.400927E-03  mag=    16.0000
       N       E                     dE             d eps       ncg     rms          rms(c)
DAV:   1    -0.626391288652E+03   -0.10863E-03   -0.21013E-02 21552   0.285E-01    0.692E-02
DAV:   2    -0.626391346505E+03   -0.57853E-04   -0.15082E-03 30156   0.984E-02    0.929E-02
DAV:   3    -0.626391303987E+03    0.42518E-04   -0.12776E-04 13884   0.338E-02
  52 F= -.62639130E+03 E0= -.62639130E+03  d E =-.180428E-03  mag=    16.0000
       N       E                     dE             d eps       ncg     rms          rms(c)
DAV:   1    -0.626391514825E+03   -0.16832E-03   -0.74220E-02 21552   0.537E-01    0.828E-02
DAV:   2    -0.626391659350E+03   -0.14452E-03   -0.20998E-03 27060   0.986E-02    0.520E-02
DAV:   3    -0.626391645831E+03    0.13519E-04   -0.10305E-04 13908   0.348E-02
  53 F= -.62639165E+03 E0= -.62639165E+03  d E =-.341844E-03  mag=    16.0000
       N       E                     dE             d eps       ncg     rms          rms(c)
DAV:   1    -0.626391752168E+03   -0.92819E-04   -0.13257E-01 21528   0.717E-01    0.896E-02
DAV:   2    -0.626392067433E+03   -0.31526E-03   -0.37670E-03 26580   0.136E-01    0.796E-02
DAV:   3    -0.626392056325E+03    0.11108E-04   -0.15760E-04 13344   0.374E-02
  54 F= -.62639206E+03 E0= -.62639206E+03  d E =-.410494E-03  mag=    16.0000
       N       E                     dE             d eps       ncg     rms          rms(c)
DAV:   1    -0.626392156671E+03   -0.89238E-04   -0.86100E-03 21552   0.181E-01    0.413E-02
DAV:   2    -0.626392181385E+03   -0.24714E-04   -0.44050E-04 20244   0.527E-02
  55 F= -.62639218E+03 E0= -.62639218E+03  d E =-.125060E-03  mag=    16.0000
       N       E                     dE             d eps       ncg     rms          rms(c)
DAV:   1    -0.626392353056E+03   -0.19638E-03   -0.67161E-02 21552   0.511E-01    0.735E-02
DAV:   2    -0.626392507312E+03   -0.15426E-03   -0.18389E-03 26112   0.931E-02    0.442E-02
DAV:   3    -0.626392500049E+03    0.72629E-05   -0.84975E-05 12852   0.286E-02
  56 F= -.62639250E+03 E0= -.62639250E+03  d E =-.318664E-03  mag=    16.0000
       N       E                     dE             d eps       ncg     rms          rms(c)
DAV:   1    -0.626392326307E+03    0.18101E-03   -0.12833E-02 21576   0.225E-01    0.292E-02
DAV:   2    -0.626392355598E+03   -0.29291E-04   -0.35381E-04 14976   0.423E-02
  57 F= -.62639236E+03 E0= -.62639236E+03  d E =0.144452E-03  mag=    16.0000
       N       E                     dE             d eps       ncg     rms          rms(c)
DAV:   1    -0.626392451458E+03   -0.12515E-03   -0.14955E-01 21528   0.763E-01    0.823E-02
DAV:   2    -0.626392819285E+03   -0.36783E-03   -0.40707E-03 25500   0.139E-01    0.529E-02
DAV:   3    -0.626392814180E+03    0.51054E-05   -0.10077E-04 13188   0.299E-02
  58 F= -.62639281E+03 E0= -.62639281E+03  d E =-.458582E-03  mag=    16.0000
       N       E                     dE             d eps       ncg     rms          rms(c)
DAV:   1    -0.626392926477E+03   -0.10719E-03   -0.18226E-02 21576   0.266E-01    0.374E-02
DAV:   2    -0.626392962690E+03   -0.36213E-04   -0.48626E-04 17904   0.485E-02
  59 F= -.62639296E+03 E0= -.62639296E+03  d E =-.148510E-03  mag=    16.0000
       N       E                     dE             d eps       ncg     rms          rms(c)
DAV:   1    -0.626393096052E+03   -0.16957E-03   -0.42269E-02 21552   0.403E-01    0.636E-02
DAV:   2    -0.626393198417E+03   -0.10237E-03   -0.11772E-03 25740   0.760E-02    0.516E-02
DAV:   3    -0.626393192651E+03    0.57661E-05   -0.56374E-05 12384   0.238E-02
  60 F= -.62639319E+03 E0= -.62639319E+03  d E =-.229961E-03  mag=    16.0000
       N       E                     dE             d eps       ncg     rms          rms(c)
DAV:   1    -0.626393243591E+03   -0.45174E-04   -0.23858E-03 19992   0.956E-02    0.217E-02
DAV:   2    -0.626393247241E+03   -0.36498E-05   -0.53443E-05 11328   0.177E-02
  61 F= -.62639325E+03 E0= -.62639325E+03  d E =-.545894E-04  mag=    16.0000
       N       E                     dE             d eps       ncg     rms          rms(c)
DAV:   1    -0.626393184577E+03    0.59014E-04   -0.20747E-01 21528   0.896E-01    0.133E-01
DAV:   2    -0.626393722866E+03   -0.53829E-03   -0.55441E-03 25440   0.158E-01    0.812E-02
DAV:   3    -0.626393731750E+03   -0.88834E-05   -0.18948E-04 15252   0.410E-02
  62 F= -.62639373E+03 E0= -.62639373E+03  d E =-.484509E-03  mag=    16.0000
       N       E                     dE             d eps       ncg     rms          rms(c)
DAV:   1    -0.626393861655E+03   -0.13879E-03   -0.37832E-02 21552   0.383E-01    0.492E-02
DAV:   2    -0.626393939275E+03   -0.77620E-04   -0.97233E-04 23748   0.666E-02
  63 F= -.62639394E+03 E0= -.62639394E+03  d E =-.207526E-03  mag=    16.0000
       N       E                     dE             d eps       ncg     rms          rms(c)
DAV:   1    -0.626394000795E+03   -0.13914E-03   -0.79178E-02 21528   0.549E-01    0.874E-02
DAV:   2    -0.626394221975E+03   -0.22118E-03   -0.20107E-03 25656   0.959E-02    0.537E-02
DAV:   3    -0.626394223546E+03   -0.15710E-05   -0.66333E-05 12228   0.228E-02
  64 F= -.62639422E+03 E0= -.62639422E+03  d E =-.284271E-03  mag=    16.0000
       N       E                     dE             d eps       ncg     rms          rms(c)
DAV:   1    -0.626394325827E+03   -0.10385E-03   -0.57277E-02 21528   0.470E-01    0.611E-02
DAV:   2    -0.626394469371E+03   -0.14354E-03   -0.14639E-03 24084   0.814E-02    0.389E-02
DAV:   3    -0.626394465176E+03    0.41948E-05   -0.40901E-05 11916   0.195E-02
  65 F= -.62639447E+03 E0= -.62639447E+03  d E =-.241630E-03  mag=    16.0000
       N       E                     dE             d eps       ncg     rms          rms(c)
DAV:   1    -0.626392951562E+03    0.15178E-02   -0.31832E-01 21528   0.111E+00    0.144E-01
DAV:   2    -0.626393877898E+03   -0.92634E-03   -0.83393E-03 24060   0.192E-01    0.810E-02
DAV:   3    -0.626393909818E+03   -0.31920E-04   -0.25934E-04 15732   0.395E-02
  66 F= -.62639391E+03 E0= -.62639391E+03  d E =0.555359E-03  mag=    16.0000
       N       E                     dE             d eps       ncg     rms          rms(c)
DAV:   1    -0.626393646675E+03    0.23122E-03   -0.29635E-01 21528   0.107E+00    0.111E-01
DAV:   2    -0.626394437603E+03   -0.79093E-03   -0.82026E-03 24156   0.192E-01    0.649E-02
DAV:   3    -0.626394445605E+03   -0.80021E-05   -0.25271E-04 16356   0.417E-02
  67 F= -.62639445E+03 E0= -.62639445E+03  d E =-.535787E-03  mag=    16.0000
       N       E                     dE             d eps       ncg     rms          rms(c)
DAV:   1    -0.626394320298E+03    0.11730E-03   -0.10385E-02 21552   0.203E-01    0.384E-02
DAV:   2    -0.626394350451E+03   -0.30154E-04   -0.37478E-04 16632   0.477E-02
  68 F= -.62639435E+03 E0= -.62639435E+03  d E =0.951532E-04  mag=    16.0000
       N       E                     dE             d eps       ncg     rms          rms(c)
DAV:   1    -0.626394428745E+03   -0.10845E-03   -0.68007E-02 21528   0.514E-01    0.495E-02
DAV:   2    -0.626394598859E+03   -0.17011E-03   -0.18148E-03 24432   0.916E-02    0.340E-02
DAV:   3    -0.626394595371E+03    0.34882E-05   -0.50084E-05 11820   0.191E-02
  69 F= -.62639460E+03 E0= -.62639460E+03  d E =-.244919E-03  mag=    16.0000
       N       E                     dE             d eps       ncg     rms          rms(c)
DAV:   1    -0.626394667389E+03   -0.68530E-04   -0.64673E-02 21528   0.500E-01    0.636E-02
DAV:   2    -0.626394834867E+03   -0.16748E-03   -0.17321E-03 26256   0.907E-02    0.518E-02
DAV:   3    -0.626394830943E+03    0.39244E-05   -0.83633E-05 13176   0.252E-02
  70 F= -.62639483E+03 E0= -.62639483E+03  d E =-.235572E-03  mag=    16.0000
       N       E                     dE             d eps       ncg     rms          rms(c)
DAV:   1    -0.626394874798E+03   -0.39931E-04   -0.17849E-03 19992   0.857E-02    0.327E-02
DAV:   2    -0.626394865713E+03    0.90856E-05   -0.78727E-05 11724   0.272E-02
  71 F= -.62639487E+03 E0= -.62639487E+03  d E =-.347702E-04  mag=    16.0000
       N       E                     dE             d eps       ncg     rms          rms(c)
DAV:   1    -0.626394946012E+03   -0.71214E-04   -0.87327E-03 21552   0.187E-01    0.397E-02
DAV:   2    -0.626394947368E+03   -0.13562E-05   -0.23510E-04 14076   0.390E-02
  72 F= -.62639495E+03 E0= -.62639495E+03  d E =-.816553E-04  mag=    16.0000
       N       E                     dE             d eps       ncg     rms          rms(c)
DAV:   1    -0.626395042950E+03   -0.96938E-04   -0.49500E-02 21528   0.440E-01    0.934E-02
DAV:   2    -0.626395136863E+03   -0.93913E-04   -0.16148E-03 27576   0.894E-02    0.644E-02
DAV:   3    -0.626395126590E+03    0.10274E-04   -0.97074E-05 13956   0.331E-02
  73 F= -.62639513E+03 E0= -.62639513E+03  d E =-.179222E-03  mag=    16.0000
       N       E                     dE             d eps       ncg     rms          rms(c)
DAV:   1    -0.626395202642E+03   -0.65779E-04   -0.23939E-02 21552   0.304E-01    0.416E-02
DAV:   2    -0.626395255272E+03   -0.52630E-04   -0.59606E-04 20844   0.541E-02
  74 F= -.62639526E+03 E0= -.62639526E+03  d E =-.128682E-03  mag=    16.0000
       N       E                     dE             d eps       ncg     rms          rms(c)
DAV:   1    -0.626395367705E+03   -0.16506E-03   -0.96551E-03 21936   0.202E-01    0.982E-02
DAV:   2    -0.626395321565E+03    0.46140E-04   -0.10817E-03 29856   0.899E-02    0.960E-02
DAV:   3    -0.626395287628E+03    0.33937E-04   -0.12121E-04 15228   0.362E-02
  75 F= -.62639529E+03 E0= -.62639529E+03  d E =-.323563E-04  mag=    16.0000
       N       E                     dE             d eps       ncg     rms          rms(c)
DAV:   1    -0.626395314066E+03    0.74992E-05   -0.48080E-02 21528   0.432E-01    0.847E-02
DAV:   2    -0.626395434033E+03   -0.11997E-03   -0.15581E-03 28152   0.100E-01    0.856E-02
DAV:   3    -0.626395426020E+03    0.80128E-05   -0.10930E-04 13248   0.339E-02
  76 F= -.62639543E+03 E0= -.62639543E+03  d E =-.138392E-03  mag=    16.0000
       N       E                     dE             d eps       ncg     rms          rms(c)
DAV:   1    -0.626395510265E+03   -0.76232E-04   -0.17799E-02 21528   0.262E-01    0.379E-02
DAV:   2    -0.626395561429E+03   -0.51164E-04   -0.69599E-04 23436   0.610E-02
  77 F= -.62639556E+03 E0= -.62639556E+03  d E =-.135409E-03  mag=    16.0000
       N       E                     dE             d eps       ncg     rms          rms(c)
DAV:   1    -0.626395663747E+03   -0.15348E-03   -0.20549E-02 21552   0.287E-01    0.639E-02
DAV:   2    -0.626395671251E+03   -0.75040E-05   -0.68728E-04 23832   0.622E-02
  78 F= -.62639567E+03 E0= -.62639567E+03  d E =-.109822E-03  mag=    16.0000
       N       E                     dE             d eps       ncg     rms          rms(c)
DAV:   1    -0.626395733747E+03   -0.70000E-04   -0.49315E-03 21900   0.144E-01    0.592E-02
DAV:   2    -0.626395703168E+03    0.30579E-04   -0.47933E-04 20712   0.601E-02
  79 F= -.62639570E+03 E0= -.62639570E+03  d E =-.319167E-04  mag=    16.0000
       N       E                     dE             d eps       ncg     rms          rms(c)
DAV:   1    -0.626395776531E+03   -0.42784E-04   -0.12186E-02 21540   0.220E-01    0.474E-02
DAV:   2    -0.626395794402E+03   -0.17871E-04   -0.58551E-04 23616   0.628E-02
  80 F= -.62639579E+03 E0= -.62639579E+03  d E =-.912341E-04  mag=    16.0000
       N       E                     dE             d eps       ncg     rms          rms(c)
DAV:   1    -0.626395867510E+03   -0.90979E-04   -0.24978E-02 21552   0.316E-01    0.659E-02
DAV:   2    -0.626395893163E+03   -0.25652E-04   -0.95211E-04 25800   0.758E-02
  81 F= -.62639589E+03 E0= -.62639589E+03  d E =-.987608E-04  mag=    16.0000
       N       E                     dE             d eps       ncg     rms          rms(c)
DAV:   1    -0.626395933776E+03   -0.66265E-04   -0.43499E-03 21132   0.132E-01    0.346E-02
DAV:   2    -0.626395938893E+03   -0.51176E-05   -0.17912E-04 13080   0.345E-02
  82 F= -.62639594E+03 E0= -.62639594E+03  d E =-.457305E-04  mag=    16.0000
       N       E                     dE             d eps       ncg     rms          rms(c)
DAV:   1    -0.626396000490E+03   -0.66715E-04   -0.51375E-03 21552   0.143E-01    0.289E-02
DAV:   2    -0.626396001302E+03   -0.81183E-06   -0.13212E-04 11316   0.308E-02
  83 F= -.62639600E+03 E0= -.62639600E+03  d E =-.624089E-04  mag=    16.0000
       N       E                     dE             d eps       ncg     rms          rms(c)
DAV:   1    -0.626396030302E+03   -0.29812E-04   -0.25115E-03 21636   0.102E-01    0.302E-02
DAV:   2    -0.626396025722E+03    0.45807E-05   -0.96036E-05 11148   0.273E-02
  84 F= -.62639603E+03 E0= -.62639603E+03  d E =-.244194E-04  mag=    16.0000
       N       E                     dE             d eps       ncg     rms          rms(c)
DAV:   1    -0.626396099945E+03   -0.69643E-04   -0.27827E-02 21528   0.330E-01    0.397E-02
DAV:   2    -0.626396164159E+03   -0.64213E-04   -0.76688E-04 22740   0.602E-02
  85 F= -.62639616E+03 E0= -.62639616E+03  d E =-.138437E-03  mag=    16.0000
