       N       E                     dE             d eps       ncg     rms          rms(c)
DAV:   1     0.550476210500E+04    0.55048E+04   -0.19756E+05 10752   0.125E+03
DAV:   2     0.481827819138E+03   -0.50229E+04   -0.46209E+04 11148   0.348E+02
DAV:   3    -0.724902344180E+03   -0.12067E+04   -0.11690E+04 12492   0.178E+02
DAV:   4    -0.826146092784E+03   -0.10124E+03   -0.99809E+02 16116   0.589E+01
DAV:   5    -0.829890762473E+03   -0.37447E+01   -0.37010E+01 17028   0.128E+01
DAV:   6    -0.830054285666E+03   -0.16352E+00   -0.16232E+00 16992   0.237E+00
DAV:   7    -0.830062672057E+03   -0.83864E-02   -0.83564E-02 17124   0.539E-01
DAV:   8    -0.830063210711E+03   -0.53865E-03   -0.53760E-03 14016   0.120E-01
DAV:   9    -0.830063248731E+03   -0.38020E-04   -0.37948E-04 10032   0.363E-02
DAV:  10    -0.830063252778E+03   -0.40469E-05   -0.40286E-05  8856   0.169E-02
DAV:  11    -0.830063254361E+03   -0.15829E-05   -0.15741E-05  8376   0.116E-02
DAV:  12    -0.830063255272E+03   -0.91136E-06   -0.90705E-06  8052   0.875E-03    0.114E+02
DAV:  13    -0.611531774116E+03    0.21853E+03   -0.12806E+03 15840   0.806E+01    0.734E+01
DAV:  14    -0.630838922790E+03   -0.19307E+02   -0.34867E+02 16632   0.422E+01    0.474E+01
DAV:  15    -0.628372104097E+03    0.24668E+01   -0.40322E+01 14700   0.141E+01    0.296E+01
DAV:  16    -0.631111146701E+03   -0.27390E+01   -0.35024E+01 16356   0.169E+01    0.207E+01
DAV:  17    -0.628657785703E+03    0.24534E+01   -0.12125E+01 15828   0.843E+00    0.862E+00
DAV:  18    -0.628398212526E+03    0.25957E+00   -0.40362E+00 15720   0.537E+00    0.464E+00
DAV:  19    -0.628255958938E+03    0.14225E+00   -0.12445E+00 15684   0.281E+00    0.123E+00
DAV:  20    -0.628276748005E+03   -0.20789E-01   -0.13583E-01 15540   0.108E+00    0.103E+00
DAV:  21    -0.628281899521E+03   -0.51515E-02   -0.40424E-02 15720   0.727E-01    0.548E-01
DAV:  22    -0.628281869353E+03    0.30168E-04   -0.87172E-03 15036   0.244E-01    0.244E-01
DAV:  23    -0.628282117183E+03   -0.24783E-03   -0.60392E-03 15300   0.156E-01    0.157E-01
DAV:  24    -0.628282097095E+03    0.20088E-04   -0.14100E-03 14748   0.946E-02    0.924E-02
DAV:  25    -0.628282096945E+03    0.15068E-06   -0.76005E-04 13620   0.570E-02
   1 F= -.62828210E+03 E0= -.62828210E+03  d E =-.628282E+03  mag=    19.9961
       N       E                     dE             d eps       ncg     rms          rms(c)
DAV:   1    -0.629587245961E+03   -0.13051E+01   -0.12112E+02 11124   0.230E+01    0.105E+01
DAV:   2    -0.628795310400E+03    0.79194E+00   -0.12994E+01 15960   0.101E+01    0.101E+01
DAV:   3    -0.628466786017E+03    0.32852E+00   -0.13294E+00 14880   0.313E+00    0.454E+00
DAV:   4    -0.628396126317E+03    0.70660E-01   -0.22964E-01 15264   0.134E+00    0.255E+00
DAV:   5    -0.628388885202E+03    0.72411E-02   -0.10393E-01 15264   0.785E-01    0.116E+00
DAV:   6    -0.628385654979E+03    0.32302E-02   -0.28036E-02 15768   0.402E-01    0.402E-01
DAV:   7    -0.628385956289E+03   -0.30131E-03   -0.70356E-03 15348   0.223E-01    0.280E-01
DAV:   8    -0.628386077676E+03   -0.12139E-03   -0.11349E-03 14844   0.824E-02    0.169E-01
DAV:   9    -0.628386138475E+03   -0.60800E-04   -0.41416E-04  8964   0.498E-02
   2 F= -.62838614E+03 E0= -.62838614E+03  d E =-.104042E+00  mag=    19.9973
       N       E                     dE             d eps       ncg     rms          rms(c)
DAV:   1    -0.629159027295E+03   -0.77295E+00   -0.21199E+01 11244   0.102E+01    0.632E+00
DAV:   2    -0.628724897723E+03    0.43413E+00   -0.40984E+00 15888   0.529E+00    0.609E+00
DAV:   3    -0.628601726836E+03    0.12317E+00   -0.80291E-01 15780   0.222E+00    0.237E+00
DAV:   4    -0.628589471799E+03    0.12255E-01   -0.72380E-02 15288   0.584E-01    0.142E+00
DAV:   5    -0.628587217477E+03    0.22543E-02   -0.31042E-02 15672   0.490E-01    0.746E-01
DAV:   6    -0.628584328986E+03    0.28885E-02   -0.17104E-02 15852   0.287E-01    0.230E-01
DAV:   7    -0.628584349114E+03   -0.20128E-04   -0.38822E-03 14868   0.138E-01    0.190E-01
DAV:   8    -0.628584371056E+03   -0.21942E-04   -0.48407E-04 11760   0.539E-02
   3 F= -.62858437E+03 E0= -.62858437E+03  d E =-.198233E+00  mag=    19.9980
       N       E                     dE             d eps       ncg     rms          rms(c)
DAV:   1    -0.628588055935E+03   -0.37068E-02   -0.12458E+01 10752   0.700E+00    0.149E+00
DAV:   2    -0.628624285948E+03   -0.36230E-01   -0.47991E-01 15240   0.183E+00    0.167E+00
DAV:   3    -0.628621888322E+03    0.23976E-02   -0.46719E-02 14568   0.584E-01    0.103E+00
DAV:   4    -0.628619006985E+03    0.28813E-02   -0.13271E-02 14112   0.228E-01    0.722E-01
DAV:   5    -0.628616897519E+03    0.21095E-02   -0.60445E-03 15120   0.294E-01    0.296E-01
DAV:   6    -0.628616705396E+03    0.19212E-03   -0.78575E-03 15180   0.197E-01    0.137E-01
DAV:   7    -0.628616635312E+03    0.70084E-04   -0.16961E-03 14520   0.972E-02    0.719E-02
DAV:   8    -0.628616620062E+03    0.15249E-04   -0.18055E-04  6972   0.398E-02
   4 F= -.62861662E+03 E0= -.62861662E+03  d E =-.322490E-01  mag=    19.9986
       N       E                     dE             d eps       ncg     rms          rms(c)
DAV:   1    -0.628693906105E+03   -0.77271E-01   -0.11435E+01 10848   0.684E+00    0.239E+00
DAV:   2    -0.628643313800E+03    0.50592E-01   -0.72834E-01 15384   0.217E+00    0.222E+00
DAV:   3    -0.628632779080E+03    0.10535E-01   -0.10261E-01 14976   0.830E-01    0.120E+00
DAV:   4    -0.628626466459E+03    0.63126E-02   -0.42421E-02 15588   0.461E-01    0.820E-01
DAV:   5    -0.628624374026E+03    0.20924E-02   -0.78993E-03 14460   0.298E-01    0.362E-01
DAV:   6    -0.628624283211E+03    0.90816E-04   -0.69152E-03 16068   0.217E-01    0.156E-01
DAV:   7    -0.628624239913E+03    0.43297E-04   -0.15179E-03 15852   0.142E-01    0.121E-01
DAV:   8    -0.628624248481E+03   -0.85674E-05   -0.51002E-04 11472   0.581E-02
   5 F= -.62862425E+03 E0= -.62862425E+03  d E =-.762842E-02  mag=    19.9990
       N       E                     dE             d eps       ncg     rms          rms(c)
DAV:   1    -0.628686473414E+03   -0.62234E-01   -0.48508E+00 10848   0.449E+00    0.140E+00
DAV:   2    -0.628670440084E+03    0.16033E-01   -0.23664E-01 15048   0.122E+00    0.114E+00
DAV:   3    -0.628667242262E+03    0.31978E-02   -0.30969E-02 14988   0.495E-01    0.601E-01
DAV:   4    -0.628665261016E+03    0.19812E-02   -0.14103E-02 15864   0.282E-01    0.325E-01
DAV:   5    -0.628664678010E+03    0.58301E-03   -0.30958E-03 14832   0.156E-01    0.169E-01
DAV:   6    -0.628664639484E+03    0.38526E-04   -0.19122E-03 16008   0.109E-01    0.109E-01
DAV:   7    -0.628664599089E+03    0.40395E-04   -0.38717E-04 10644   0.618E-02
   6 F= -.62866460E+03 E0= -.62866460E+03  d E =-.403506E-01  mag=    19.9992
       N       E                     dE             d eps       ncg     rms          rms(c)
DAV:   1    -0.628673341159E+03   -0.87017E-02   -0.30825E+00 10752   0.352E+00    0.681E-01
DAV:   2    -0.628678114510E+03   -0.47734E-02   -0.11925E-01 14892   0.793E-01    0.595E-01
DAV:   3    -0.628677134132E+03    0.98038E-03   -0.10794E-02 14724   0.278E-01    0.318E-01
DAV:   4    -0.628676800462E+03    0.33367E-03   -0.97967E-04 13536   0.980E-02    0.222E-01
DAV:   5    -0.628676727256E+03    0.73206E-04   -0.97011E-04 14352   0.782E-02
   7 F= -.62867673E+03 E0= -.62867673E+03  d E =-.121282E-01  mag=    19.9994
       N       E                     dE             d eps       ncg     rms          rms(c)
DAV:   1    -0.628682283358E+03   -0.54829E-02   -0.39183E-01 11112   0.128E+00    0.395E-01
DAV:   2    -0.628681741491E+03    0.54187E-03   -0.25460E-02 15612   0.403E-01    0.387E-01
DAV:   3    -0.628681210012E+03    0.53148E-03   -0.41778E-03 14976   0.158E-01    0.179E-01
DAV:   4    -0.628681137624E+03    0.72388E-04   -0.94249E-04 13200   0.691E-02
   8 F= -.62868114E+03 E0= -.62868114E+03  d E =-.441037E-02  mag=    19.9995
       N       E                     dE             d eps       ncg     rms          rms(c)
DAV:   1    -0.628684553024E+03   -0.33430E-02   -0.14192E+00 10752   0.237E+00    0.250E-01
DAV:   2    -0.628688485827E+03   -0.39328E-02   -0.43350E-02 14172   0.444E-01    0.236E-01
DAV:   3    -0.628688369100E+03    0.11673E-03   -0.19011E-03 14208   0.113E-01    0.145E-01
DAV:   4    -0.628688268436E+03    0.10066E-03   -0.19123E-04  7704   0.464E-02    0.113E-01
DAV:   5    -0.628688205466E+03    0.62969E-04   -0.70631E-04 11856   0.862E-02
   9 F= -.62868821E+03 E0= -.62868821E+03  d E =-.706784E-02  mag=    19.9996
       N       E                     dE             d eps       ncg     rms          rms(c)
DAV:   1    -0.628690924871E+03   -0.26564E-02   -0.11950E+00 10800   0.216E+00    0.289E-01
DAV:   2    -0.628694169772E+03   -0.32449E-02   -0.35463E-02 13476   0.388E-01    0.215E-01
DAV:   3    -0.628694233641E+03   -0.63870E-04   -0.19159E-03 14124   0.963E-02    0.142E-01
DAV:   4    -0.628694131748E+03    0.10189E-03   -0.29662E-04  8400   0.493E-02    0.948E-02
DAV:   5    -0.628694103975E+03    0.27773E-04   -0.35739E-04  8892   0.626E-02
  10 F= -.62869410E+03 E0= -.62869410E+03  d E =-.589851E-02  mag=    19.9996
       N       E                     dE             d eps       ncg     rms          rms(c)
DAV:   1    -0.628696140381E+03   -0.20086E-02   -0.42500E-01 10800   0.130E+00    0.160E-01
DAV:   2    -0.628697304918E+03   -0.11645E-02   -0.13525E-02 14304   0.255E-01    0.155E-01
DAV:   3    -0.628697272563E+03    0.32355E-04   -0.72862E-04 12588   0.715E-02
  11 F= -.62869727E+03 E0= -.62869727E+03  d E =-.316859E-02  mag=    19.9997
       N       E                     dE             d eps       ncg     rms          rms(c)
DAV:   1    -0.628699477526E+03   -0.21726E-02   -0.74905E-01 10776   0.172E+00    0.215E-01
DAV:   2    -0.628701283529E+03   -0.18060E-02   -0.20675E-02 13056   0.294E-01    0.161E-01
DAV:   3    -0.628701209582E+03    0.73947E-04   -0.82432E-04 13464   0.774E-02
  12 F= -.62870121E+03 E0= -.62870121E+03  d E =-.393702E-02  mag=    19.9997
       N       E                     dE             d eps       ncg     rms          rms(c)
DAV:   1    -0.628701695891E+03   -0.41236E-03   -0.23088E+00 10752   0.302E+00    0.352E-01
DAV:   2    -0.628707695628E+03   -0.59997E-02   -0.66116E-02 13584   0.538E-01    0.305E-01
DAV:   3    -0.628707594304E+03    0.10132E-03   -0.28392E-03 14376   0.125E-01    0.187E-01
DAV:   4    -0.628707340773E+03    0.25353E-03   -0.67508E-04 12660   0.913E-02    0.122E-01
DAV:   5    -0.628707324829E+03    0.15944E-04   -0.94639E-04 14340   0.779E-02
  13 F= -.62870732E+03 E0= -.62870732E+03  d E =-.611525E-02  mag=    19.9997
       N       E                     dE             d eps       ncg     rms          rms(c)
DAV:   1    -0.628708031982E+03   -0.69121E-03   -0.96789E-01 10788   0.195E+00    0.316E-01
DAV:   2    -0.628710711863E+03   -0.26799E-02   -0.29129E-02 13704   0.367E-01    0.179E-01
DAV:   3    -0.628710959165E+03   -0.24730E-03   -0.27257E-03 14460   0.112E-01    0.109E-01
DAV:   4    -0.628710851080E+03    0.10809E-03   -0.27032E-04  8760   0.491E-02    0.664E-02
DAV:   5    -0.628710841722E+03    0.93582E-05   -0.64619E-04 11316   0.624E-02
  14 F= -.62871084E+03 E0= -.62871084E+03  d E =-.351689E-02  mag=    19.9998
       N       E                     dE             d eps       ncg     rms          rms(c)
DAV:   1    -0.628697969462E+03    0.12882E-01   -0.71923E+00 10800   0.533E+00    0.652E-01
DAV:   2    -0.628718597859E+03   -0.20628E-01   -0.21166E-01 13284   0.954E-01    0.487E-01
DAV:   3    -0.628718612429E+03   -0.14570E-04   -0.83042E-03 14268   0.222E-01    0.293E-01
DAV:   4    -0.628718100359E+03    0.51207E-03   -0.15348E-03 14892   0.113E-01    0.201E-01
DAV:   5    -0.628717784699E+03    0.31566E-03   -0.14039E-03 15792   0.143E-01    0.746E-02
DAV:   6    -0.628717883427E+03   -0.98728E-04   -0.12254E-03 13656   0.801E-02    0.760E-02
DAV:   7    -0.628717847472E+03    0.35955E-04   -0.87168E-05  6324   0.284E-02
  15 F= -.62871785E+03 E0= -.62871785E+03  d E =-.700575E-02  mag=    19.9998
       N       E                     dE             d eps       ncg     rms          rms(c)
DAV:   1    -0.628708065290E+03    0.98181E-02   -0.22652E+00 10776   0.299E+00    0.377E-01
DAV:   2    -0.628714447179E+03   -0.63819E-02   -0.64182E-02 13164   0.532E-01    0.268E-01
DAV:   3    -0.628714606874E+03   -0.15969E-03   -0.31163E-03 14700   0.124E-01    0.166E-01
DAV:   4    -0.628714444340E+03    0.16253E-03   -0.26740E-04  8628   0.515E-02    0.121E-01
DAV:   5    -0.628714348010E+03    0.96330E-04   -0.11205E-03 14208   0.100E-01    0.488E-02
DAV:   6    -0.628714336291E+03    0.11718E-04   -0.37139E-04  9060   0.531E-02
  16 F= -.62871434E+03 E0= -.62871434E+03  d E =0.351118E-02  mag=    19.9999
       N       E                     dE             d eps       ncg     rms          rms(c)
DAV:   1    -0.628713957560E+03    0.39045E-03   -0.11589E+00 10800   0.215E+00    0.235E-01
DAV:   2    -0.628717021273E+03   -0.30637E-02   -0.31706E-02 11844   0.369E-01    0.159E-01
DAV:   3    -0.628717037088E+03   -0.15814E-04   -0.11406E-03 14496   0.789E-02    0.109E-01
DAV:   4    -0.628716976147E+03    0.60941E-04   -0.13986E-04  6600   0.331E-02
  17 F= -.62871698E+03 E0= -.62871698E+03  d E =-.263986E-02  mag=    19.9999
       N       E                     dE             d eps       ncg     rms          rms(c)
DAV:   1    -0.628717586514E+03   -0.54943E-03   -0.10867E-01 10872   0.645E-01    0.114E-01
DAV:   2    -0.628717756367E+03   -0.16985E-03   -0.28842E-03 13860   0.120E-01    0.103E-01
DAV:   3    -0.628717739137E+03    0.17230E-04   -0.21247E-04  6516   0.358E-02
  18 F= -.62871774E+03 E0= -.62871774E+03  d E =-.762991E-03  mag=    19.9999
       N       E                     dE             d eps       ncg     rms          rms(c)
DAV:   1    -0.628718148243E+03   -0.39188E-03   -0.11350E-01 10812   0.671E-01    0.118E-01
DAV:   2    -0.628718455975E+03   -0.30773E-03   -0.37440E-03 13860   0.138E-01    0.108E-01
DAV:   3    -0.628718420534E+03    0.35441E-04   -0.16451E-04  6840   0.425E-02
  19 F= -.62871842E+03 E0= -.62871842E+03  d E =-.681396E-03  mag=    19.9999
       N       E                     dE             d eps       ncg     rms          rms(c)
DAV:   1    -0.628718754027E+03   -0.29805E-03   -0.60179E-02 10992   0.489E-01    0.813E-02
DAV:   2    -0.628718874467E+03   -0.12044E-03   -0.15862E-03 13104   0.883E-02    0.530E-02
DAV:   3    -0.628718865492E+03    0.89749E-05   -0.60039E-05  6444   0.239E-02
  20 F= -.62871887E+03 E0= -.62871887E+03  d E =-.444959E-03  mag=    19.9999
       N       E                     dE             d eps       ncg     rms          rms(c)
DAV:   1    -0.628719157432E+03   -0.28297E-03   -0.11786E-02 11304   0.240E-01    0.153E-01
DAV:   2    -0.628718876004E+03    0.28143E-03   -0.22409E-03 15864   0.127E-01    0.140E-01
DAV:   3    -0.628718804187E+03    0.71817E-04   -0.30641E-04 10104   0.501E-02
  21 F= -.62871880E+03 E0= -.62871880E+03  d E =0.613052E-04  mag=    19.9999
       N       E                     dE             d eps       ncg     rms          rms(c)
DAV:   1    -0.628719421513E+03   -0.54551E-03   -0.48372E-02 10944   0.448E-01    0.135E-01
DAV:   2    -0.628719338404E+03    0.83109E-04   -0.24359E-03 15744   0.134E-01    0.137E-01
DAV:   3    -0.628719309333E+03    0.29071E-04   -0.25568E-04  8832   0.456E-02
  22 F= -.62871931E+03 E0= -.62871931E+03  d E =-.505146E-03  mag=    19.9999
       N       E                     dE             d eps       ncg     rms          rms(c)
DAV:   1    -0.628719626550E+03   -0.28815E-03   -0.14134E-01 10812   0.747E-01    0.138E-01
DAV:   2    -0.628719958194E+03   -0.33164E-03   -0.42270E-03 14400   0.144E-01    0.999E-02
DAV:   3    -0.628719954011E+03    0.41836E-05   -0.18732E-04  7284   0.427E-02
  23 F= -.62871995E+03 E0= -.62871995E+03  d E =-.644678E-03  mag=    19.9999
       N       E                     dE             d eps       ncg     rms          rms(c)
DAV:   1    -0.628720010033E+03   -0.51838E-04   -0.79837E-04 10152   0.601E-02    0.637E-02
DAV:   2    -0.628719990425E+03    0.19608E-04   -0.63693E-05  5928   0.297E-02
  24 F= -.62871999E+03 E0= -.62871999E+03  d E =-.364144E-04  mag=    19.9999
       N       E                     dE             d eps       ncg     rms          rms(c)
DAV:   1    -0.628720368172E+03   -0.35814E-03   -0.99302E-02 10848   0.638E-01    0.146E-01
DAV:   2    -0.628720400824E+03   -0.32652E-04   -0.44854E-03 14964   0.165E-01    0.146E-01
DAV:   3    -0.628720326265E+03    0.74558E-04   -0.36192E-04 10032   0.553E-02
  25 F= -.62872033E+03 E0= -.62872033E+03  d E =-.335840E-03  mag=    19.9999
       N       E                     dE             d eps       ncg     rms          rms(c)
DAV:   1    -0.628722068765E+03   -0.16679E-02   -0.75336E-02 11016   0.595E-01    0.321E-01
DAV:   2    -0.628720529017E+03    0.15397E-02   -0.91230E-03 15744   0.224E-01    0.196E-01
DAV:   3    -0.628720341981E+03    0.18704E-03   -0.19632E-03 15276   0.124E-01    0.965E-02
DAV:   4    -0.628720282913E+03    0.59068E-04   -0.24686E-04  8976   0.423E-02
  26 F= -.62872028E+03 E0= -.62872028E+03  d E =0.433525E-04  mag=    20.0000
       N       E                     dE             d eps       ncg     rms          rms(c)
DAV:   1    -0.628720841977E+03   -0.50000E-03   -0.13454E-01 10752   0.713E-01    0.197E-01
DAV:   2    -0.628720752301E+03    0.89676E-04   -0.56130E-03 14232   0.201E-01    0.182E-01
DAV:   3    -0.628720742601E+03    0.97005E-05   -0.13246E-03 13848   0.740E-02    0.121E-01
DAV:   4    -0.628720674109E+03    0.68491E-04   -0.49584E-04 11232   0.532E-02
  27 F= -.62872067E+03 E0= -.62872067E+03  d E =-.391196E-03  mag=    20.0000
       N       E                     dE             d eps       ncg     rms          rms(c)
DAV:   1    -0.628721107934E+03   -0.36533E-03   -0.56712E-02 10800   0.455E-01    0.834E-02
DAV:   2    -0.628721262012E+03   -0.15408E-03   -0.29430E-03 13884   0.138E-01    0.128E-01
DAV:   3    -0.628721234571E+03    0.27441E-04   -0.19319E-04  7464   0.393E-02
  28 F= -.62872123E+03 E0= -.62872123E+03  d E =-.560462E-03  mag=    20.0000
       N       E                     dE             d eps       ncg     rms          rms(c)
DAV:   1    -0.628721749615E+03   -0.48760E-03   -0.12557E-01 10944   0.720E-01    0.196E-01
DAV:   2    -0.628721534851E+03    0.21476E-03   -0.51762E-03 14760   0.169E-01    0.112E-01
DAV:   3    -0.628721434368E+03    0.10048E-03   -0.68719E-04 12216   0.889E-02    0.759E-02
DAV:   4    -0.628721412399E+03    0.21969E-04   -0.21939E-04  8052   0.405E-02
  29 F= -.62872141E+03 E0= -.62872141E+03  d E =-.177827E-03  mag=    20.0000
       N       E                     dE             d eps       ncg     rms          rms(c)
DAV:   1    -0.628721884767E+03   -0.45040E-03   -0.16504E-02 11160   0.259E-01    0.102E-01
DAV:   2    -0.628721762609E+03    0.12216E-03   -0.95046E-04 13560   0.868E-02    0.893E-02
DAV:   3    -0.628721749000E+03    0.13609E-04   -0.15828E-04  7284   0.358E-02
  30 F= -.62872175E+03 E0= -.62872175E+03  d E =-.336602E-03  mag=    20.0000
       N       E                     dE             d eps       ncg     rms          rms(c)
DAV:   1    -0.628721982821E+03   -0.22021E-03   -0.30129E-02 10848   0.351E-01    0.106E-01
DAV:   2    -0.628721971285E+03    0.11535E-04   -0.13299E-03 13848   0.848E-02    0.757E-02
DAV:   3    -0.628721950698E+03    0.20587E-04   -0.13962E-04  8088   0.386E-02
  31 F= -.62872195E+03 E0= -.62872195E+03  d E =-.201698E-03  mag=    20.0000
       N       E                     dE             d eps       ncg     rms          rms(c)
DAV:   1    -0.628722099828E+03   -0.12854E-03   -0.33143E-02 10824   0.362E-01    0.708E-02
DAV:   2    -0.628722161837E+03   -0.62010E-04   -0.10578E-03 12276   0.741E-02    0.572E-02
DAV:   3    -0.628722154738E+03    0.70987E-05   -0.71649E-05  6144   0.255E-02
  32 F= -.62872215E+03 E0= -.62872215E+03  d E =-.204040E-03  mag=    20.0000
       N       E                     dE             d eps       ncg     rms          rms(c)
DAV:   1    -0.628722038822E+03    0.12301E-03   -0.62267E-03 10608   0.156E-01    0.292E-02
DAV:   2    -0.628722057095E+03   -0.18273E-04   -0.17726E-04  6756   0.329E-02
  33 F= -.62872206E+03 E0= -.62872206E+03  d E =0.976431E-04  mag=    20.0000
       N       E                     dE             d eps       ncg     rms          rms(c)
DAV:   1    -0.628722021895E+03    0.16927E-04   -0.19122E-03 10956   0.898E-02    0.413E-02
DAV:   2    -0.628722010556E+03    0.11340E-04   -0.73335E-05  6084   0.249E-02
  34 F= -.62872201E+03 E0= -.62872201E+03  d E =0.465395E-04  mag=    20.0000
       N       E                     dE             d eps       ncg     rms          rms(c)
DAV:   1    -0.628721330447E+03    0.69145E-03   -0.17838E-01 10800   0.812E-01    0.277E-01
DAV:   2    -0.628722062326E+03   -0.73188E-03   -0.57910E-03 13644   0.183E-01    0.175E-01
DAV:   3    -0.628722150204E+03   -0.87878E-04   -0.68619E-04 11832   0.705E-02
  35 F= -.62872215E+03 E0= -.62872215E+03  d E =-.139648E-03  mag=    20.0000
       N       E                     dE             d eps       ncg     rms          rms(c)
DAV:   1    -0.628722566481E+03   -0.50416E-03   -0.11247E-01 10800   0.650E-01    0.318E-01
DAV:   2    -0.628722301292E+03    0.26519E-03   -0.55240E-03 14928   0.185E-01    0.176E-01
DAV:   3    -0.628722310173E+03   -0.88806E-05   -0.10984E-03 14676   0.923E-02    0.955E-02
DAV:   4    -0.628722265954E+03    0.44219E-04   -0.21425E-04  7764   0.374E-02
  36 F= -.62872227E+03 E0= -.62872227E+03  d E =-.115750E-03  mag=    20.0000
       N       E                     dE             d eps       ncg     rms          rms(c)
DAV:   1    -0.628722327820E+03   -0.17647E-04   -0.87333E-02 10800   0.569E-01    0.162E-01
DAV:   2    -0.628722446797E+03   -0.11898E-03   -0.62393E-03 15120   0.207E-01    0.230E-01
DAV:   3    -0.628722361521E+03    0.85277E-04   -0.85623E-04 12264   0.629E-02
  37 F= -.62872236E+03 E0= -.62872236E+03  d E =-.955664E-04  mag=    20.0000
       N       E                     dE             d eps       ncg     rms          rms(c)
DAV:   1    -0.628722685336E+03   -0.23854E-03   -0.46489E-02 10800   0.415E-01    0.130E-01
DAV:   2    -0.628722877130E+03   -0.19179E-03   -0.55935E-03 15528   0.178E-01    0.144E-01
DAV:   3    -0.628722684531E+03    0.19260E-03   -0.69894E-04 12600   0.710E-02    0.590E-02
DAV:   4    -0.628722673995E+03    0.10536E-04   -0.11076E-04  6096   0.221E-02
  38 F= -.62872267E+03 E0= -.62872267E+03  d E =-.312474E-03  mag=    20.0000
       N       E                     dE             d eps       ncg     rms          rms(c)
DAV:   1    -0.628722822752E+03   -0.13822E-03   -0.85226E-02 10800   0.582E-01    0.129E-01
DAV:   2    -0.628722848261E+03   -0.25509E-04   -0.29588E-03 13488   0.128E-01    0.930E-02
DAV:   3    -0.628722820646E+03    0.27614E-04   -0.20431E-04  8472   0.474E-02
  39 F= -.62872282E+03 E0= -.62872282E+03  d E =-.146652E-03  mag=    20.0000
       N       E                     dE             d eps       ncg     rms          rms(c)
DAV:   1    -0.628722886832E+03   -0.38572E-04   -0.25204E-03 11508   0.107E-01    0.681E-02
DAV:   2    -0.628722841033E+03    0.45799E-04   -0.53013E-04 11220   0.591E-02
  40 F= -.62872284E+03 E0= -.62872284E+03  d E =-.203867E-04  mag=    20.0000
       N       E                     dE             d eps       ncg     rms          rms(c)
DAV:   1    -0.628723254323E+03   -0.36749E-03   -0.13969E-02 10944   0.252E-01    0.126E-01
DAV:   2    -0.628723046767E+03    0.20756E-03   -0.15269E-03 15600   0.102E-01    0.105E-01
DAV:   3    -0.628723003106E+03    0.43661E-04   -0.22582E-04  9000   0.451E-02
  41 F= -.62872300E+03 E0= -.62872300E+03  d E =-.162072E-03  mag=    20.0000
       N       E                     dE             d eps       ncg     rms          rms(c)
DAV:   1    -0.628723052165E+03   -0.53986E-05   -0.27562E-02 10800   0.324E-01    0.921E-02
DAV:   2    -0.628723066335E+03   -0.14170E-04   -0.11010E-03 13908   0.815E-02    0.848E-02
DAV:   3    -0.628723048601E+03    0.17734E-04   -0.14690E-04  6864   0.300E-02
  42 F= -.62872305E+03 E0= -.62872305E+03  d E =-.454958E-04  mag=    20.0000
       N       E                     dE             d eps       ncg     rms          rms(c)
DAV:   1    -0.628723187907E+03   -0.12157E-03   -0.23360E-02 10800   0.292E-01    0.590E-02
DAV:   2    -0.628723265927E+03   -0.78021E-04   -0.11540E-03 13308   0.823E-02    0.808E-02
DAV:   3    -0.628723248915E+03    0.17012E-04   -0.83905E-05  6192   0.273E-02
  43 F= -.62872325E+03 E0= -.62872325E+03  d E =-.200314E-03  mag=    20.0000
       N       E                     dE             d eps       ncg     rms          rms(c)
DAV:   1    -0.628723440265E+03   -0.17434E-03   -0.52515E-02 10896   0.460E-01    0.130E-01
DAV:   2    -0.628723316786E+03    0.12348E-03   -0.20739E-03 13788   0.111E-01    0.947E-02
DAV:   3    -0.628723280416E+03    0.36370E-04   -0.18619E-04  8472   0.471E-02
  44 F= -.62872328E+03 E0= -.62872328E+03  d E =-.315008E-04  mag=    20.0000
       N       E                     dE             d eps       ncg     rms          rms(c)
DAV:   1    -0.628723561546E+03   -0.24476E-03   -0.14226E-02 10896   0.241E-01    0.816E-02
DAV:   2    -0.628723497927E+03    0.63619E-04   -0.84931E-04 13608   0.762E-02
  45 F= -.62872350E+03 E0= -.62872350E+03  d E =-.217511E-03  mag=    20.0000
       N       E                     dE             d eps       ncg     rms          rms(c)
DAV:   1    -0.628723549310E+03    0.12236E-04   -0.27521E-02 10848   0.329E-01    0.108E-01
DAV:   2    -0.628723539553E+03    0.97570E-05   -0.95196E-04 13128   0.836E-02
  46 F= -.62872354E+03 E0= -.62872354E+03  d E =-.416256E-04  mag=    20.0000
       N       E                     dE             d eps       ncg     rms          rms(c)
DAV:   1    -0.628723569330E+03   -0.20020E-04   -0.18112E-02 10920   0.267E-01    0.667E-02
DAV:   2    -0.628723631260E+03   -0.61931E-04   -0.61375E-04 12132   0.616E-02
  47 F= -.62872363E+03 E0= -.62872363E+03  d E =-.917075E-04  mag=    20.0000
       N       E                     dE             d eps       ncg     rms          rms(c)
DAV:   1    -0.628723652317E+03   -0.82987E-04   -0.22201E-04  6732   0.357E-02    0.445E-02
DAV:   2    -0.628723650214E+03    0.21026E-05   -0.33285E-05  5952   0.168E-02
  48 F= -.62872365E+03 E0= -.62872365E+03  d E =-.189537E-04  mag=    20.0000
