       N       E                     dE             d eps       ncg     rms          rms(c)
DAV:   1     0.551244995915E+04    0.55124E+04   -0.19750E+05 21504   0.125E+03
DAV:   2     0.487940089866E+03   -0.50245E+04   -0.46271E+04 22260   0.349E+02
DAV:   3    -0.722671126584E+03   -0.12106E+04   -0.11725E+04 25320   0.178E+02
DAV:   4    -0.825523540290E+03   -0.10285E+03   -0.10144E+03 32220   0.592E+01
DAV:   5    -0.829236603456E+03   -0.37131E+01   -0.36702E+01 34020   0.127E+01
DAV:   6    -0.829398207456E+03   -0.16160E+00   -0.16047E+00 34080   0.235E+00
DAV:   7    -0.829406363457E+03   -0.81560E-02   -0.81281E-02 34092   0.533E-01
DAV:   8    -0.829406890202E+03   -0.52675E-03   -0.52587E-03 27948   0.119E-01
DAV:   9    -0.829406927122E+03   -0.36919E-04   -0.36862E-04 19860   0.362E-02
DAV:  10    -0.829406931208E+03   -0.40862E-05   -0.40708E-05 17712   0.169E-02
DAV:  11    -0.829406932789E+03   -0.15818E-05   -0.15749E-05 16452   0.117E-02
DAV:  12    -0.829406933702E+03   -0.91238E-06   -0.90884E-06 16032   0.879E-03    0.114E+02
DAV:  13    -0.619147898983E+03    0.21026E+03   -0.12727E+03 32076   0.821E+01    0.798E+01
DAV:  14    -0.680283563298E+03   -0.61136E+02   -0.12184E+03 35280   0.988E+01    0.112E+02
DAV:  15    -0.654674607905E+03    0.25609E+02   -0.43248E+02 33564   0.763E+01    0.481E+01
DAV:  16    -0.637284013789E+03    0.17391E+02   -0.80682E+01 35496   0.386E+01    0.385E+01
DAV:  17    -0.627965002693E+03    0.93190E+01   -0.45368E+01 31584   0.169E+01    0.219E+01
DAV:  18    -0.627434890439E+03    0.53011E+00   -0.16686E+01 30684   0.151E+01    0.233E+01
DAV:  19    -0.625374050688E+03    0.20608E+01   -0.18392E+01 32580   0.139E+01    0.922E+00
DAV:  20    -0.625067453452E+03    0.30660E+00   -0.30990E+00 31800   0.558E+00    0.579E+00
DAV:  21    -0.625067109547E+03    0.34391E-03   -0.15125E+00 31764   0.334E+00    0.437E+00
DAV:  22    -0.624918207573E+03    0.14890E+00   -0.27010E-01 31308   0.210E+00    0.293E+00
DAV:  23    -0.624864585495E+03    0.53622E-01   -0.12685E-01 32988   0.143E+00    0.343E+00
DAV:  24    -0.624871249312E+03   -0.66638E-02   -0.70355E-02 28008   0.551E-01    0.260E+00
DAV:  25    -0.624893080665E+03   -0.21831E-01   -0.18872E-01 31800   0.902E-01    0.414E+00
DAV:  26    -0.624874691342E+03    0.18389E-01   -0.22956E-02 32604   0.442E-01    0.523E+00
DAV:  27    -0.624894340177E+03   -0.19649E-01   -0.78327E-03 33480   0.314E-01    0.568E+00
DAV:  28    -0.624887928446E+03    0.64117E-02   -0.51921E-03 29100   0.188E-01    0.553E+00
DAV:  29    -0.624862401578E+03    0.25527E-01   -0.75472E-02 33444   0.925E-01    0.332E+00
DAV:  30    -0.624853996987E+03    0.84046E-02   -0.88204E-02 30552   0.836E-01    0.200E+00
DAV:  31    -0.624857728491E+03   -0.37315E-02   -0.16343E-01 31452   0.764E-01    0.100E+00
DAV:  32    -0.624853699977E+03    0.40285E-02   -0.14522E-01 30252   0.612E-01    0.494E-01
DAV:  33    -0.624852100127E+03    0.15998E-02   -0.70882E-02 31764   0.401E-01    0.633E-01
DAV:  34    -0.624850198486E+03    0.19016E-02   -0.15756E-02 30732   0.249E-01    0.425E-01
DAV:  35    -0.624849855973E+03    0.34251E-03   -0.35050E-03 29736   0.139E-01    0.229E-01
DAV:  36    -0.624849894563E+03   -0.38590E-04   -0.11733E-03 28356   0.913E-02    0.106E-01
DAV:  37    -0.624849930179E+03   -0.35616E-04   -0.10276E-03 19284   0.656E-02    0.106E-01
DAV:  38    -0.624849931480E+03   -0.13012E-05   -0.12207E-04 13344   0.325E-02
   1 F= -.62484993E+03 E0= -.62482139E+03  d E =-.624850E+03  mag=    19.7549
       N       E                     dE             d eps       ncg     rms          rms(c)
DAV:   1    -0.625269635607E+03   -0.41971E+00   -0.84111E+02 21504   0.576E+01    0.159E+01
DAV:   2    -0.626922461080E+03   -0.16528E+01   -0.52848E+01 31128   0.247E+01    0.194E+01
DAV:   3    -0.626921043308E+03    0.14178E-02   -0.11405E+01 30120   0.729E+00    0.130E+01
DAV:   4    -0.626265401526E+03    0.65564E+00   -0.23432E+00 32940   0.379E+00    0.967E+00
DAV:   5    -0.626229323970E+03    0.36078E-01   -0.19935E+00 29124   0.312E+00    0.480E+00
DAV:   6    -0.626115010945E+03    0.11431E+00   -0.69290E-01 33384   0.279E+00    0.260E+00
DAV:   7    -0.626101944461E+03    0.13066E-01   -0.58953E-01 30756   0.198E+00    0.190E+00
DAV:   8    -0.626102873674E+03   -0.92921E-03   -0.95061E-02 31260   0.923E-01    0.721E-01
DAV:   9    -0.626102200000E+03    0.67367E-03   -0.19376E-02 32280   0.379E-01    0.525E-01
DAV:  10    -0.626101713168E+03    0.48683E-03   -0.61183E-03 30996   0.254E-01    0.403E-01
DAV:  11    -0.626101145727E+03    0.56744E-03   -0.32279E-03 31740   0.131E-01    0.206E-01
DAV:  12    -0.626101080512E+03    0.65215E-04   -0.10502E-03 31116   0.790E-02    0.146E-01
DAV:  13    -0.626101120196E+03   -0.39684E-04   -0.22592E-04 15060   0.395E-02
   2 F= -.62610112E+03 E0= -.62610112E+03  d E =-.125119E+01  mag=    19.8463
       N       E                     dE             d eps       ncg     rms          rms(c)
DAV:   1    -0.628345507277E+03   -0.22444E+01   -0.15657E+02 21576   0.248E+01    0.106E+01
DAV:   2    -0.628013476630E+03    0.33203E+00   -0.13976E+01 30132   0.113E+01    0.136E+01
DAV:   3    -0.627764365537E+03    0.24911E+00   -0.28040E+00 30384   0.357E+00    0.924E+00
DAV:   4    -0.627683105987E+03    0.81260E-01   -0.13117E+00 31704   0.273E+00    0.741E+00
DAV:   5    -0.627617753705E+03    0.65352E-01   -0.36323E-01 29580   0.200E+00    0.335E+00
DAV:   6    -0.627570504583E+03    0.47249E-01   -0.47141E-01 31776   0.151E+00    0.140E+00
DAV:   7    -0.627564687010E+03    0.58176E-02   -0.10840E-01 30432   0.759E-01    0.101E+00
DAV:   8    -0.627561087664E+03    0.35993E-02   -0.16465E-02 32064   0.497E-01    0.410E-01
DAV:   9    -0.627560242475E+03    0.84519E-03   -0.11179E-02 30696   0.256E-01    0.276E-01
DAV:  10    -0.627560280235E+03   -0.37760E-04   -0.32189E-03 30504   0.118E-01    0.194E-01
DAV:  11    -0.627560126177E+03    0.15406E-03   -0.91142E-04 26964   0.695E-02    0.137E-01
DAV:  12    -0.627560117616E+03    0.85616E-05   -0.23110E-04 14304   0.382E-02
   3 F= -.62756012E+03 E0= -.62756012E+03  d E =-.145900E+01  mag=    19.9055
       N       E                     dE             d eps       ncg     rms          rms(c)
DAV:   1    -0.627435808366E+03    0.12432E+00   -0.10925E+02 21504   0.199E+01    0.470E+00
DAV:   2    -0.627824051961E+03   -0.38824E+00   -0.57399E+00 28836   0.562E+00    0.638E+00
DAV:   3    -0.627779452173E+03    0.44600E-01   -0.52751E-01 27492   0.164E+00    0.472E+00
DAV:   4    -0.627705525336E+03    0.73927E-01   -0.39258E-01 28332   0.132E+00    0.363E+00
DAV:   5    -0.627717857307E+03   -0.12332E-01   -0.33157E-01 28452   0.120E+00    0.197E+00
DAV:   6    -0.627692135637E+03    0.25722E-01   -0.10721E-01 31332   0.841E-01    0.145E+00
DAV:   7    -0.627678901112E+03    0.13235E-01   -0.13060E-01 27252   0.702E-01    0.679E-01
DAV:   8    -0.627679971791E+03   -0.10707E-02   -0.13833E-02 27924   0.305E-01    0.367E-01
DAV:   9    -0.627679914891E+03    0.56899E-04   -0.39199E-03 29028   0.128E-01    0.265E-01
DAV:  10    -0.627679188732E+03    0.72616E-03   -0.12861E-03 29856   0.104E-01    0.160E-01
DAV:  11    -0.627679090902E+03    0.97829E-04   -0.11382E-03 28044   0.676E-02    0.825E-02
DAV:  12    -0.627679042343E+03    0.48559E-04   -0.43270E-04 19392   0.449E-02
   4 F= -.62767904E+03 E0= -.62767904E+03  d E =-.118925E+00  mag=    19.9404
       N       E                     dE             d eps       ncg     rms          rms(c)
DAV:   1    -0.627917686286E+03   -0.23860E+00   -0.17699E+01 21504   0.818E+00    0.227E+00
DAV:   2    -0.627953538029E+03   -0.35852E-01   -0.10242E+00 29520   0.257E+00    0.295E+00
DAV:   3    -0.627946725196E+03    0.68128E-02   -0.11643E-01 27648   0.791E-01    0.223E+00
DAV:   4    -0.627932444182E+03    0.14281E-01   -0.48996E-02 29688   0.455E-01    0.179E+00
DAV:   5    -0.627929335358E+03    0.31088E-02   -0.55265E-02 30108   0.531E-01    0.887E-01
DAV:   6    -0.627926407543E+03    0.29278E-02   -0.29582E-02 32208   0.462E-01    0.486E-01
DAV:   7    -0.627925674227E+03    0.73332E-03   -0.17233E-02 31116   0.309E-01    0.387E-01
DAV:   8    -0.627925696892E+03   -0.22665E-04   -0.19803E-03 30168   0.133E-01    0.213E-01
DAV:   9    -0.627925717116E+03   -0.20223E-04   -0.73230E-04 26088   0.705E-02
   5 F= -.62792572E+03 E0= -.62792572E+03  d E =-.246675E+00  mag=    19.9581
       N       E                     dE             d eps       ncg     rms          rms(c)
DAV:   1    -0.627923631915E+03    0.20650E-02   -0.26699E+01 21504   0.102E+01    0.233E+00
DAV:   2    -0.627984325281E+03   -0.60693E-01   -0.89343E-01 26844   0.206E+00    0.157E+00
DAV:   3    -0.627984640855E+03   -0.31557E-03   -0.65787E-02 28776   0.710E-01    0.787E-01
DAV:   4    -0.627980904969E+03    0.37359E-02   -0.23654E-02 31620   0.346E-01    0.493E-01
DAV:   5    -0.627979644015E+03    0.12610E-02   -0.53300E-03 28872   0.206E-01    0.250E-01
DAV:   6    -0.627979603913E+03    0.40102E-04   -0.33994E-03 31176   0.133E-01    0.128E-01
DAV:   7    -0.627979612599E+03   -0.86863E-05   -0.83148E-04 27096   0.761E-02
   6 F= -.62797961E+03 E0= -.62797961E+03  d E =-.538955E-01  mag=    19.9682
       N       E                     dE             d eps       ncg     rms          rms(c)
DAV:   1    -0.628065070843E+03   -0.85467E-01   -0.15958E+01 21504   0.800E+00    0.195E+00
DAV:   2    -0.628068132623E+03   -0.30618E-02   -0.70612E-01 30936   0.221E+00    0.193E+00
DAV:   3    -0.628061481434E+03    0.66512E-02   -0.91102E-02 30984   0.783E-01    0.110E+00
DAV:   4    -0.628056834161E+03    0.46473E-02   -0.24307E-02 31296   0.345E-01    0.724E-01
DAV:   5    -0.628055164104E+03    0.16701E-02   -0.71889E-03 28980   0.248E-01    0.342E-01
DAV:   6    -0.628055014437E+03    0.14967E-03   -0.54048E-03 32484   0.183E-01    0.116E-01
DAV:   7    -0.628055007492E+03    0.69452E-05   -0.10182E-03 30564   0.110E-01    0.823E-02
DAV:   8    -0.628055009775E+03   -0.22838E-05   -0.21352E-04 17628   0.457E-02
   7 F= -.62805501E+03 E0= -.62805501E+03  d E =-.753972E-01  mag=    19.9765
       N       E                     dE             d eps       ncg     rms          rms(c)
DAV:   1    -0.627737445277E+03    0.31756E+00   -0.13453E+02 21504   0.230E+01    0.347E+00
DAV:   2    -0.628143616269E+03   -0.40617E+00   -0.44498E+00 27396   0.462E+00    0.347E+00
DAV:   3    -0.628123326024E+03    0.20290E-01   -0.22240E-01 29268   0.120E+00    0.187E+00
DAV:   4    -0.628108730303E+03    0.14596E-01   -0.77904E-02 31776   0.691E-01    0.144E+00
DAV:   5    -0.628105364787E+03    0.33655E-02   -0.32061E-02 30240   0.441E-01    0.604E-01
DAV:   6    -0.628104758362E+03    0.60642E-03   -0.15712E-02 31764   0.321E-01    0.335E-01
DAV:   7    -0.628104740591E+03    0.17772E-04   -0.41895E-03 29016   0.141E-01    0.165E-01
DAV:   8    -0.628104732594E+03    0.79972E-05   -0.13950E-03 28800   0.844E-02    0.957E-02
DAV:   9    -0.628104664526E+03    0.68068E-04   -0.25847E-04 15036   0.475E-02
   8 F= -.62810466E+03 E0= -.62810466E+03  d E =-.496548E-01  mag=    19.9838
       N       E                     dE             d eps       ncg     rms          rms(c)
DAV:   1    -0.628028861126E+03    0.75871E-01   -0.36424E+01 21504   0.120E+01    0.201E+00
DAV:   2    -0.628142363158E+03   -0.11350E+00   -0.13957E+00 28620   0.271E+00    0.238E+00
DAV:   3    -0.628130809290E+03    0.11554E-01   -0.86734E-02 28920   0.723E-01    0.148E+00
DAV:   4    -0.628123664782E+03    0.71445E-02   -0.53013E-02 31092   0.495E-01    0.108E+00
DAV:   5    -0.628122017391E+03    0.16474E-02   -0.13415E-02 27972   0.312E-01    0.492E-01
DAV:   6    -0.628121335225E+03    0.68217E-03   -0.11929E-02 31488   0.250E-01    0.263E-01
DAV:   7    -0.628121237655E+03    0.97570E-04   -0.30599E-03 27528   0.119E-01    0.127E-01
DAV:   8    -0.628121224156E+03    0.13499E-04   -0.73150E-04 25332   0.671E-02
   9 F= -.62812122E+03 E0= -.62812122E+03  d E =-.165596E-01  mag=    19.9881
       N       E                     dE             d eps       ncg     rms          rms(c)
DAV:   1    -0.628122603398E+03   -0.13657E-02   -0.70076E+00 21504   0.526E+00    0.643E-01
DAV:   2    -0.628141963663E+03   -0.19360E-01   -0.20298E-01 26592   0.951E-01    0.523E-01
DAV:   3    -0.628141698908E+03    0.26476E-03   -0.83520E-03 29784   0.213E-01    0.284E-01
DAV:   4    -0.628141056408E+03    0.64250E-03   -0.18121E-03 30672   0.124E-01    0.214E-01
DAV:   5    -0.628140909739E+03    0.14667E-03   -0.16177E-03 30120   0.928E-02    0.903E-02
DAV:   6    -0.628140890368E+03    0.19370E-04   -0.30668E-04 17076   0.514E-02
  10 F= -.62814089E+03 E0= -.62814089E+03  d E =-.196662E-01  mag=    19.9905
       N       E                     dE             d eps       ncg     rms          rms(c)
DAV:   1    -0.628137536106E+03    0.33736E-02   -0.90284E+00 21504   0.598E+00    0.841E-01
DAV:   2    -0.628156411298E+03   -0.18875E-01   -0.26481E-01 26796   0.113E+00    0.552E-01
DAV:   3    -0.628156213294E+03    0.19800E-03   -0.21396E-02 30852   0.352E-01    0.306E-01
DAV:   4    -0.628155481640E+03    0.73165E-03   -0.38421E-03 31224   0.157E-01    0.198E-01
DAV:   5    -0.628155220767E+03    0.26087E-03   -0.16148E-03 29784   0.956E-02    0.101E-01
DAV:   6    -0.628155181795E+03    0.38972E-04   -0.53878E-04 24792   0.692E-02
  11 F= -.62815518E+03 E0= -.62815518E+03  d E =-.142914E-01  mag=    19.9923
       N       E                     dE             d eps       ncg     rms          rms(c)
DAV:   1    -0.628161345335E+03   -0.61246E-02   -0.10118E+00 21720   0.202E+00    0.480E-01
DAV:   2    -0.628162456383E+03   -0.11110E-02   -0.45088E-02 29892   0.521E-01    0.442E-01
DAV:   3    -0.628161937493E+03    0.51889E-03   -0.56394E-03 29880   0.190E-01    0.216E-01
DAV:   4    -0.628161796686E+03    0.14081E-03   -0.10558E-03 29400   0.906E-02    0.157E-01
DAV:   5    -0.628161742723E+03    0.53963E-04   -0.43058E-04 22476   0.598E-02
  12 F= -.62816174E+03 E0= -.62816174E+03  d E =-.656093E-02  mag=    19.9937
       N       E                     dE             d eps       ncg     rms          rms(c)
DAV:   1    -0.628162958535E+03   -0.11618E-02   -0.83655E-01 21504   0.181E+00    0.315E-01
DAV:   2    -0.628165246500E+03   -0.22880E-02   -0.26598E-02 27984   0.388E-01    0.307E-01
DAV:   3    -0.628165240202E+03    0.62975E-05   -0.30517E-03 30528   0.121E-01    0.177E-01
DAV:   4    -0.628165111350E+03    0.12885E-03   -0.90720E-04 27852   0.722E-02    0.133E-01
DAV:   5    -0.628165073919E+03    0.37431E-04   -0.29112E-04 18492   0.507E-02
  13 F= -.62816507E+03 E0= -.62816507E+03  d E =-.333120E-02  mag=    19.9949
       N       E                     dE             d eps       ncg     rms          rms(c)
DAV:   1    -0.628166982718E+03   -0.18714E-02   -0.21362E-01 21552   0.903E-01    0.164E-01
DAV:   2    -0.628167466990E+03   -0.48427E-03   -0.82713E-03 27576   0.234E-01    0.212E-01
DAV:   3    -0.628167424255E+03    0.42734E-04   -0.95056E-04 25992   0.658E-02
  14 F= -.62816742E+03 E0= -.62816742E+03  d E =-.235034E-02  mag=    19.9953
       N       E                     dE             d eps       ncg     rms          rms(c)
DAV:   1    -0.628169568251E+03   -0.21013E-02   -0.79287E-01 21504   0.178E+00    0.362E-01
DAV:   2    -0.628170246406E+03   -0.67815E-03   -0.24144E-02 27336   0.365E-01    0.215E-01
DAV:   3    -0.628170191715E+03    0.54691E-04   -0.30149E-03 31308   0.146E-01    0.134E-01
DAV:   4    -0.628170083454E+03    0.10826E-03   -0.70648E-04 26160   0.626E-02    0.755E-02
DAV:   5    -0.628170052992E+03    0.30462E-04   -0.24438E-04 18468   0.442E-02
  15 F= -.62817005E+03 E0= -.62817005E+03  d E =-.262874E-02  mag=    19.9962
       N       E                     dE             d eps       ncg     rms          rms(c)
DAV:   1    -0.628172889070E+03   -0.28056E-02   -0.23667E-01 21648   0.982E-01    0.278E-01
DAV:   2    -0.628172662399E+03    0.22667E-03   -0.10665E-02 29688   0.257E-01    0.226E-01
DAV:   3    -0.628172539228E+03    0.12317E-03   -0.17087E-03 30756   0.105E-01    0.107E-01
DAV:   4    -0.628172472739E+03    0.66489E-04   -0.43520E-04 22728   0.561E-02
  16 F= -.62817247E+03 E0= -.62817247E+03  d E =-.241975E-02  mag=    19.9967
       N       E                     dE             d eps       ncg     rms          rms(c)
DAV:   1    -0.628173951216E+03   -0.14120E-02   -0.64820E-01 21504   0.159E+00    0.237E-01
DAV:   2    -0.628175499635E+03   -0.15484E-02   -0.18392E-02 26940   0.293E-01    0.169E-01
DAV:   3    -0.628175491280E+03    0.83554E-05   -0.12600E-03 28296   0.878E-02    0.781E-02
DAV:   4    -0.628175431375E+03    0.59905E-04   -0.17240E-04 13824   0.405E-02
  17 F= -.62817543E+03 E0= -.62817543E+03  d E =-.295864E-02  mag=    19.9972
       N       E                     dE             d eps       ncg     rms          rms(c)
DAV:   1    -0.628176625518E+03   -0.11342E-02   -0.17721E-01 21552   0.836E-01    0.139E-01
DAV:   2    -0.628177027907E+03   -0.40239E-03   -0.63277E-03 28920   0.199E-01    0.163E-01
DAV:   3    -0.628176965920E+03    0.61987E-04   -0.55033E-04 22932   0.600E-02
  18 F= -.62817697E+03 E0= -.62817697E+03  d E =-.153455E-02  mag=    19.9975
       N       E                     dE             d eps       ncg     rms          rms(c)
DAV:   1    -0.628178158235E+03   -0.11303E-02   -0.44531E-01 21528   0.132E+00    0.195E-01
DAV:   2    -0.628179242323E+03   -0.10841E-02   -0.11894E-02 25920   0.235E-01    0.111E-01
DAV:   3    -0.628179251204E+03   -0.88814E-05   -0.65027E-04 24972   0.665E-02
  19 F= -.62817925E+03 E0= -.62817925E+03  d E =-.228528E-02  mag=    19.9977
       N       E                     dE             d eps       ncg     rms          rms(c)
DAV:   1    -0.628180470903E+03   -0.12286E-02   -0.43687E-01 21528   0.131E+00    0.177E-01
DAV:   2    -0.628181524483E+03   -0.10536E-02   -0.12197E-02 26604   0.242E-01    0.152E-01
DAV:   3    -0.628181492711E+03    0.31772E-04   -0.68642E-04 25404   0.613E-02
  20 F= -.62818149E+03 E0= -.62818149E+03  d E =-.224151E-02  mag=    19.9979
       N       E                     dE             d eps       ncg     rms          rms(c)
DAV:   1    -0.628172315536E+03    0.92089E-02   -0.60618E+00 21504   0.486E+00    0.609E-01
DAV:   2    -0.628188900549E+03   -0.16585E-01   -0.16049E-01 24216   0.845E-01    0.397E-01
DAV:   3    -0.628189169185E+03   -0.26864E-03   -0.65302E-03 30048   0.178E-01    0.203E-01
DAV:   4    -0.628188743100E+03    0.42609E-03   -0.10347E-03 27564   0.889E-02    0.140E-01
DAV:   5    -0.628188626724E+03    0.11638E-03   -0.11257E-03 25656   0.805E-02    0.539E-02
DAV:   6    -0.628188623579E+03    0.31450E-05   -0.19692E-04 13380   0.404E-02
  21 F= -.62818862E+03 E0= -.62818862E+03  d E =-.713087E-02  mag=    19.9984
       N       E                     dE             d eps       ncg     rms          rms(c)
DAV:   1    -0.628175613649E+03    0.13013E-01   -0.32484E+00 21504   0.357E+00    0.451E-01
DAV:   2    -0.628183970590E+03   -0.83569E-02   -0.89243E-02 25668   0.645E-01    0.347E-01
DAV:   3    -0.628183962015E+03    0.85755E-05   -0.41114E-03 28956   0.154E-01    0.162E-01
DAV:   4    -0.628183692986E+03    0.26903E-03   -0.67251E-04 24792   0.733E-02    0.125E-01
DAV:   5    -0.628183618745E+03    0.74241E-04   -0.59893E-04 24624   0.576E-02
  22 F= -.62818362E+03 E0= -.62818362E+03  d E =0.500483E-02  mag=    19.9986
       N       E                     dE             d eps       ncg     rms          rms(c)
DAV:   1    -0.628182297881E+03    0.13951E-02   -0.20501E+00 21504   0.283E+00    0.312E-01
DAV:   2    -0.628187856748E+03   -0.55589E-02   -0.53872E-02 23844   0.483E-01    0.182E-01
DAV:   3    -0.628187943478E+03   -0.86730E-04   -0.19208E-03 29928   0.883E-02    0.961E-02
DAV:   4    -0.628187814946E+03    0.12853E-03   -0.20489E-04 15780   0.441E-02    0.693E-02
DAV:   5    -0.628187775926E+03    0.39021E-04   -0.37716E-04 18816   0.490E-02
  23 F= -.62818778E+03 E0= -.62818778E+03  d E =-.415718E-02  mag=    19.9989
       N       E                     dE             d eps       ncg     rms          rms(c)
DAV:   1    -0.628186095253E+03    0.17197E-02   -0.15308E+00 21504   0.242E+00    0.409E-01
DAV:   2    -0.628190976703E+03   -0.48814E-02   -0.39888E-02 24756   0.424E-01    0.227E-01
DAV:   3    -0.628191308277E+03   -0.33157E-03   -0.19386E-03 29532   0.930E-02    0.103E-01
DAV:   4    -0.628191202655E+03    0.10562E-03   -0.22882E-04 16680   0.447E-02    0.716E-02
DAV:   5    -0.628191183141E+03    0.19515E-04   -0.42535E-04 18480   0.465E-02
  24 F= -.62819118E+03 E0= -.62819118E+03  d E =-.340721E-02  mag=    19.9991
       N       E                     dE             d eps       ncg     rms          rms(c)
DAV:   1    -0.628187862008E+03    0.33406E-02   -0.23055E+00 21504   0.299E+00    0.444E-01
DAV:   2    -0.628194815764E+03   -0.69538E-02   -0.60593E-02 24276   0.517E-01    0.243E-01
DAV:   3    -0.628195157914E+03   -0.34215E-03   -0.25468E-03 29568   0.105E-01    0.113E-01
DAV:   4    -0.628195015404E+03    0.14251E-03   -0.41645E-04 20784   0.553E-02    0.749E-02
DAV:   5    -0.628194965055E+03    0.50350E-04   -0.30104E-04 17484   0.505E-02
  25 F= -.62819497E+03 E0= -.62819497E+03  d E =-.378191E-02  mag=    19.9992
       N       E                     dE             d eps       ncg     rms          rms(c)
DAV:   1    -0.628187811136E+03    0.72043E-02   -0.37588E+00 21504   0.382E+00    0.522E-01
DAV:   2    -0.628198965420E+03   -0.11154E-01   -0.98742E-02 23904   0.657E-01    0.284E-01
DAV:   3    -0.628199394198E+03   -0.42878E-03   -0.35793E-03 29772   0.121E-01    0.136E-01
DAV:   4    -0.628199177049E+03    0.21715E-03   -0.51848E-04 21984   0.621E-02    0.873E-02
DAV:   5    -0.628199102250E+03    0.74798E-04   -0.49682E-04 21624   0.591E-02
  26 F= -.62819910E+03 E0= -.62819910E+03  d E =-.413720E-02  mag=    19.9994
       N       E                     dE             d eps       ncg     rms          rms(c)
DAV:   1    -0.628199326811E+03   -0.14976E-03   -0.37412E-01 21504   0.120E+00    0.150E-01
DAV:   2    -0.628200292602E+03   -0.96579E-03   -0.10280E-02 25968   0.223E-01    0.117E-01
DAV:   3    -0.628200310038E+03   -0.17436E-04   -0.69705E-04 25068   0.574E-02
  27 F= -.62820031E+03 E0= -.62820031E+03  d E =-.120779E-02  mag=    19.9994
       N       E                     dE             d eps       ncg     rms          rms(c)
DAV:   1    -0.628199826071E+03    0.46653E-03   -0.39266E-02 21552   0.391E-01    0.800E-02
DAV:   2    -0.628199969057E+03   -0.14299E-03   -0.14312E-03 27024   0.913E-02    0.631E-02
DAV:   3    -0.628199967970E+03    0.10868E-05   -0.11525E-04 13140   0.310E-02
  28 F= -.62819997E+03 E0= -.62819997E+03  d E =0.342068E-03  mag=    19.9995
       N       E                     dE             d eps       ncg     rms          rms(c)
DAV:   1    -0.628199713594E+03    0.25546E-03   -0.17695E-02 21816   0.260E-01    0.577E-02
DAV:   2    -0.628199779183E+03   -0.65589E-04   -0.48279E-04 21144   0.538E-02
  29 F= -.62819978E+03 E0= -.62819978E+03  d E =0.188787E-03  mag=    19.9995
       N       E                     dE             d eps       ncg     rms          rms(c)
DAV:   1    -0.628199076709E+03    0.63689E-03   -0.33113E-01 21504   0.112E+00    0.259E-01
DAV:   2    -0.628200409939E+03   -0.13332E-02   -0.86383E-03 24744   0.201E-01    0.142E-01
DAV:   3    -0.628200558690E+03   -0.14875E-03   -0.53543E-04 23376   0.590E-02    0.638E-02
DAV:   4    -0.628200539547E+03    0.19142E-04   -0.69915E-05 13404   0.261E-02
  30 F= -.62820054E+03 E0= -.62820054E+03  d E =-.760364E-03  mag=    19.9996
       N       E                     dE             d eps       ncg     rms          rms(c)
DAV:   1    -0.628200527098E+03    0.31591E-04   -0.10556E-01 21516   0.605E-01    0.205E-01
DAV:   2    -0.628201082195E+03   -0.55510E-03   -0.27279E-03 26592   0.124E-01    0.119E-01
DAV:   3    -0.628201164492E+03   -0.82297E-04   -0.26914E-04 17196   0.477E-02
  31 F= -.62820116E+03 E0= -.62820116E+03  d E =-.624945E-03  mag=    19.9996
       N       E                     dE             d eps       ncg     rms          rms(c)
DAV:   1    -0.628201433244E+03   -0.35105E-03   -0.35291E-02 21732   0.371E-01    0.524E-02
DAV:   2    -0.628201524155E+03   -0.90911E-04   -0.10238E-03 23952   0.692E-02    0.363E-02
DAV:   3    -0.628201517432E+03    0.67227E-05   -0.38729E-05 11880   0.171E-02
  32 F= -.62820152E+03 E0= -.62820152E+03  d E =-.352940E-03  mag=    19.9996
       N       E                     dE             d eps       ncg     rms          rms(c)
DAV:   1    -0.628201540716E+03   -0.16561E-04   -0.44497E-01 21504   0.131E+00    0.154E-01
DAV:   2    -0.628202729256E+03   -0.11885E-02   -0.11491E-02 24552   0.224E-01    0.935E-02
DAV:   3    -0.628202740639E+03   -0.11384E-04   -0.38038E-04 20784   0.457E-02
  33 F= -.62820274E+03 E0= -.62820274E+03  d E =-.122321E-02  mag=    19.9997
       N       E                     dE             d eps       ncg     rms          rms(c)
DAV:   1    -0.628203056035E+03   -0.32678E-03   -0.65334E-02 21600   0.501E-01    0.703E-02
DAV:   2    -0.628203182208E+03   -0.12617E-03   -0.16547E-03 25728   0.874E-02    0.535E-02
DAV:   3    -0.628203168519E+03    0.13689E-04   -0.69725E-05 12300   0.240E-02
  34 F= -.62820317E+03 E0= -.62820317E+03  d E =-.427879E-03  mag=    19.9997
       N       E                     dE             d eps       ncg     rms          rms(c)
DAV:   1    -0.628203135318E+03    0.46890E-04   -0.44885E-01 21504   0.132E+00    0.161E-01
DAV:   2    -0.628204313504E+03   -0.11782E-02   -0.11685E-02 24876   0.226E-01    0.980E-02
DAV:   3    -0.628204331073E+03   -0.17569E-04   -0.47246E-04 22464   0.469E-02
  35 F= -.62820433E+03 E0= -.62820433E+03  d E =-.116255E-02  mag=    19.9997
       N       E                     dE             d eps       ncg     rms          rms(c)
DAV:   1    -0.628204497052E+03   -0.18355E-03   -0.20884E-02 21768   0.284E-01    0.505E-02
DAV:   2    -0.628204541338E+03   -0.44286E-04   -0.74856E-04 24888   0.641E-02
  36 F= -.62820454E+03 E0= -.62820454E+03  d E =-.210265E-03  mag=    19.9997
       N       E                     dE             d eps       ncg     rms          rms(c)
DAV:   1    -0.628204775399E+03   -0.27835E-03   -0.15833E-01 21504   0.782E-01    0.108E-01
DAV:   2    -0.628205195224E+03   -0.41983E-03   -0.41613E-03 24732   0.136E-01    0.657E-02
DAV:   3    -0.628205188546E+03    0.66782E-05   -0.12009E-04 14364   0.307E-02
  37 F= -.62820519E+03 E0= -.62820519E+03  d E =-.647208E-03  mag=    19.9998
       N       E                     dE             d eps       ncg     rms          rms(c)
DAV:   1    -0.628205429060E+03   -0.23384E-03   -0.11912E-01 21504   0.679E-01    0.877E-02
DAV:   2    -0.628205727921E+03   -0.29886E-03   -0.32114E-03 26580   0.121E-01    0.678E-02
DAV:   3    -0.628205717965E+03    0.99565E-05   -0.11647E-04 14592   0.286E-02
  38 F= -.62820572E+03 E0= -.62820572E+03  d E =-.529419E-03  mag=    19.9998
       N       E                     dE             d eps       ncg     rms          rms(c)
DAV:   1    -0.628205928823E+03   -0.20090E-03   -0.32268E-02 21600   0.353E-01    0.551E-02
DAV:   2    -0.628206008714E+03   -0.79890E-04   -0.96182E-04 25464   0.686E-02
  39 F= -.62820601E+03 E0= -.62820601E+03  d E =-.290749E-03  mag=    19.9998
       N       E                     dE             d eps       ncg     rms          rms(c)
DAV:   1    -0.628206195061E+03   -0.26624E-03   -0.82557E-02 21504   0.562E-01    0.976E-02
DAV:   2    -0.628206445726E+03   -0.25067E-03   -0.22196E-03 26136   0.102E-01    0.622E-02
DAV:   3    -0.628206447877E+03   -0.21515E-05   -0.90734E-05 13404   0.280E-02
  40 F= -.62820645E+03 E0= -.62820645E+03  d E =-.439164E-03  mag=    19.9998
       N       E                     dE             d eps       ncg     rms          rms(c)
DAV:   1    -0.628206622274E+03   -0.17655E-03   -0.24300E-02 21696   0.306E-01    0.408E-02
DAV:   2    -0.628206679986E+03   -0.57712E-04   -0.60206E-04 20796   0.532E-02
  41 F= -.62820668E+03 E0= -.62820668E+03  d E =-.232108E-03  mag=    19.9998
       N       E                     dE             d eps       ncg     rms          rms(c)
DAV:   1    -0.628206649900E+03   -0.27627E-04   -0.12965E-01 21504   0.696E-01    0.150E-01
DAV:   2    -0.628207151553E+03   -0.50165E-03   -0.33930E-03 26316   0.128E-01    0.958E-02
DAV:   3    -0.628207185969E+03   -0.34416E-04   -0.19455E-04 15744   0.358E-02
  42 F= -.62820719E+03 E0= -.62820719E+03  d E =-.505983E-03  mag=    19.9998
       N       E                     dE             d eps       ncg     rms          rms(c)
DAV:   1    -0.628207011520E+03    0.14003E-03   -0.10408E-02 21624   0.186E-01    0.794E-02
DAV:   2    -0.628207077529E+03   -0.66009E-04   -0.37749E-04 20544   0.522E-02
  43 F= -.62820708E+03 E0= -.62820708E+03  d E =0.108440E-03  mag=    19.9999
       N       E                     dE             d eps       ncg     rms          rms(c)
DAV:   1    -0.628207115034E+03   -0.10351E-03   -0.16432E-03 20340   0.761E-02    0.296E-02
DAV:   2    -0.628207123348E+03   -0.83143E-05   -0.48757E-05 12144   0.206E-02
  44 F= -.62820712E+03 E0= -.62820712E+03  d E =-.458186E-04  mag=    19.9999
       N       E                     dE             d eps       ncg     rms          rms(c)
DAV:   1    -0.628207275159E+03   -0.16013E-03   -0.94143E-02 21504   0.604E-01    0.838E-02
DAV:   2    -0.628207534291E+03   -0.25913E-03   -0.27394E-03 26124   0.113E-01    0.687E-02
DAV:   3    -0.628207530827E+03    0.34645E-05   -0.10378E-04 13512   0.286E-02
  45 F= -.62820753E+03 E0= -.62820753E+03  d E =-.407479E-03  mag=    19.9999
       N       E                     dE             d eps       ncg     rms          rms(c)
DAV:   1    -0.628207656653E+03   -0.12236E-03   -0.12318E-02 21504   0.217E-01    0.398E-02
DAV:   2    -0.628207695089E+03   -0.38435E-04   -0.37655E-04 19224   0.450E-02
  46 F= -.62820770E+03 E0= -.62820770E+03  d E =-.164262E-03  mag=    19.9999
       N       E                     dE             d eps       ncg     rms          rms(c)
DAV:   1    -0.628207806690E+03   -0.15004E-03   -0.16053E-02 21684   0.245E-01    0.606E-02
DAV:   2    -0.628207863729E+03   -0.57039E-04   -0.43228E-04 18492   0.466E-02
  47 F= -.62820786E+03 E0= -.62820786E+03  d E =-.168640E-03  mag=    19.9999
       N       E                     dE             d eps       ncg     rms          rms(c)
DAV:   1    -0.628208043163E+03   -0.23647E-03   -0.32753E-02 21504   0.356E-01    0.560E-02
DAV:   2    -0.628208098036E+03   -0.54872E-04   -0.10462E-03 26568   0.729E-02    0.523E-02
DAV:   3    -0.628208091083E+03    0.69533E-05   -0.56000E-05 12564   0.218E-02
  48 F= -.62820809E+03 E0= -.62820809E+03  d E =-.227353E-03  mag=    19.9999
       N       E                     dE             d eps       ncg     rms          rms(c)
DAV:   1    -0.628208134400E+03   -0.36364E-04   -0.18617E-03 20352   0.844E-02    0.246E-02
DAV:   2    -0.628208139280E+03   -0.48801E-05   -0.66167E-05 12504   0.208E-02
  49 F= -.62820814E+03 E0= -.62820814E+03  d E =-.481970E-04  mag=    19.9999
       N       E                     dE             d eps       ncg     rms          rms(c)
DAV:   1    -0.628208334825E+03   -0.20043E-03   -0.45582E-02 21528   0.423E-01    0.830E-02
DAV:   2    -0.628208417766E+03   -0.82941E-04   -0.15032E-03 26892   0.868E-02    0.648E-02
DAV:   3    -0.628208407365E+03    0.10401E-04   -0.94157E-05 13788   0.295E-02
  50 F= -.62820841E+03 E0= -.62820841E+03  d E =-.268085E-03  mag=    19.9999
       N       E                     dE             d eps       ncg     rms          rms(c)
DAV:   1    -0.628208571286E+03   -0.15352E-03   -0.45486E-02 21504   0.421E-01    0.571E-02
DAV:   2    -0.628208675993E+03   -0.10471E-03   -0.14298E-03 27300   0.828E-02    0.543E-02
DAV:   3    -0.628208664579E+03    0.11414E-04   -0.62033E-05 12228   0.235E-02
  51 F= -.62820866E+03 E0= -.62820866E+03  d E =-.257214E-03  mag=    19.9999
       N       E                     dE             d eps       ncg     rms          rms(c)
DAV:   1    -0.628208902823E+03   -0.22683E-03   -0.28497E-02 21540   0.338E-01    0.978E-02
DAV:   2    -0.628208885087E+03    0.17736E-04   -0.11936E-03 27024   0.836E-02    0.766E-02
DAV:   3    -0.628208871263E+03    0.13824E-04   -0.12659E-04 15480   0.367E-02
  52 F= -.62820887E+03 E0= -.62820887E+03  d E =-.206684E-03  mag=    19.9999
       N       E                     dE             d eps       ncg     rms          rms(c)
DAV:   1    -0.628208974331E+03   -0.89244E-04   -0.11850E-02 21528   0.214E-01    0.498E-02
DAV:   2    -0.628209012575E+03   -0.38243E-04   -0.50649E-04 23220   0.564E-02
  53 F= -.62820901E+03 E0= -.62820901E+03  d E =-.141312E-03  mag=    19.9999
       N       E                     dE             d eps       ncg     rms          rms(c)
DAV:   1    -0.628209118820E+03   -0.14449E-03   -0.98509E-02 21504   0.616E-01    0.109E-01
DAV:   2    -0.628209392792E+03   -0.27397E-03   -0.27691E-03 26292   0.116E-01    0.721E-02
DAV:   3    -0.628209398196E+03   -0.54038E-05   -0.11935E-04 13980   0.302E-02
  54 F= -.62820940E+03 E0= -.62820940E+03  d E =-.385621E-03  mag=    19.9999
       N       E                     dE             d eps       ncg     rms          rms(c)
DAV:   1    -0.628209452983E+03   -0.60191E-04   -0.29988E-03 20736   0.108E-01    0.247E-02
DAV:   2    -0.628209454956E+03   -0.19733E-05   -0.10321E-04 12300   0.275E-02
  55 F= -.62820945E+03 E0= -.62820945E+03  d E =-.567605E-04  mag=    19.9999
       N       E                     dE             d eps       ncg     rms          rms(c)
DAV:   1    -0.628209639978E+03   -0.18700E-03   -0.85565E-02 21504   0.579E-01    0.857E-02
DAV:   2    -0.628209816862E+03   -0.17688E-03   -0.25302E-03 26640   0.109E-01    0.655E-02
DAV:   3    -0.628209803708E+03    0.13154E-04   -0.98289E-05 13236   0.307E-02
  56 F= -.62820980E+03 E0= -.62820980E+03  d E =-.348752E-03  mag=    19.9999
       N       E                     dE             d eps       ncg     rms          rms(c)
DAV:   1    -0.628209915698E+03   -0.98836E-04   -0.11022E-02 21552   0.206E-01    0.348E-02
DAV:   2    -0.628209941865E+03   -0.26167E-04   -0.29388E-04 15456   0.396E-02
  57 F= -.62820994E+03 E0= -.62820994E+03  d E =-.138157E-03  mag=    19.9999
       N       E                     dE             d eps       ncg     rms          rms(c)
DAV:   1    -0.628210102044E+03   -0.18635E-03   -0.31215E-02 21552   0.347E-01    0.737E-02
DAV:   2    -0.628210163471E+03   -0.61427E-04   -0.91378E-04 24816   0.677E-02
  58 F= -.62821016E+03 E0= -.62821016E+03  d E =-.221606E-03  mag=    20.0000
       N       E                     dE             d eps       ncg     rms          rms(c)
DAV:   1    -0.628210252162E+03   -0.15012E-03   -0.41816E-02 21528   0.399E-01    0.888E-02
DAV:   2    -0.628210391517E+03   -0.13936E-03   -0.11548E-03 24408   0.747E-02    0.514E-02
DAV:   3    -0.628210398014E+03   -0.64963E-05   -0.50933E-05 12828   0.211E-02
  59 F= -.62821040E+03 E0= -.62821040E+03  d E =-.234543E-03  mag=    20.0000
       N       E                     dE             d eps       ncg     rms          rms(c)
DAV:   1    -0.628210467469E+03   -0.75952E-04   -0.40807E-03 21504   0.126E-01    0.250E-02
DAV:   2    -0.628210470523E+03   -0.30539E-05   -0.97951E-05 12396   0.257E-02
  60 F= -.62821047E+03 E0= -.62821047E+03  d E =-.725095E-04  mag=    20.0000
       N       E                     dE             d eps       ncg     rms          rms(c)
DAV:   1    -0.628210629455E+03   -0.16199E-03   -0.46357E-02 21528   0.427E-01    0.650E-02
DAV:   2    -0.628210725591E+03   -0.96135E-04   -0.14451E-03 26976   0.832E-02    0.564E-02
DAV:   3    -0.628210716062E+03    0.95287E-05   -0.65712E-05 12396   0.266E-02
  61 F= -.62821072E+03 E0= -.62821072E+03  d E =-.245539E-03  mag=    20.0000
       N       E                     dE             d eps       ncg     rms          rms(c)
DAV:   1    -0.628210831485E+03   -0.10589E-03   -0.39885E-02 21528   0.393E-01    0.628E-02
DAV:   2    -0.628210933691E+03   -0.10221E-03   -0.10854E-03 26016   0.748E-02    0.533E-02
DAV:   3    -0.628210933512E+03    0.17887E-06   -0.46760E-05 11892   0.221E-02
  62 F= -.62821093E+03 E0= -.62821093E+03  d E =-.217450E-03  mag=    20.0000
       N       E                     dE             d eps       ncg     rms          rms(c)
DAV:   1    -0.628211043115E+03   -0.10942E-03   -0.15551E-02 21528   0.245E-01    0.389E-02
DAV:   2    -0.628211078862E+03   -0.35747E-04   -0.42667E-04 20124   0.464E-02
  63 F= -.62821108E+03 E0= -.62821108E+03  d E =-.145350E-03  mag=    20.0000
       N       E                     dE             d eps       ncg     rms          rms(c)
DAV:   1    -0.628211188112E+03   -0.14500E-03   -0.10189E-02 21684   0.200E-01    0.417E-02
DAV:   2    -0.628211190650E+03   -0.25375E-05   -0.27939E-04 14172   0.402E-02
  64 F= -.62821119E+03 E0= -.62821119E+03  d E =-.111788E-03  mag=    20.0000
       N       E                     dE             d eps       ncg     rms          rms(c)
DAV:   1    -0.628211404668E+03   -0.21656E-03   -0.77589E-02 21516   0.555E-01    0.119E-01
DAV:   2    -0.628211495309E+03   -0.90641E-04   -0.29615E-03 29304   0.125E-01    0.105E-01
DAV:   3    -0.628211454384E+03    0.40926E-04   -0.22091E-04 16872   0.461E-02
  65 F= -.62821145E+03 E0= -.62821145E+03  d E =-.263734E-03  mag=    20.0000
       N       E                     dE             d eps       ncg     rms          rms(c)
DAV:   1    -0.628211553864E+03   -0.58555E-04   -0.52320E-03 22020   0.152E-01    0.679E-02
DAV:   2    -0.628211529623E+03    0.24241E-04   -0.68744E-04 25632   0.715E-02
  66 F= -.62821153E+03 E0= -.62821153E+03  d E =-.752394E-04  mag=    20.0000
       N       E                     dE             d eps       ncg     rms          rms(c)
DAV:   1    -0.628211613624E+03   -0.59760E-04   -0.75613E-02 21528   0.547E-01    0.105E-01
DAV:   2    -0.628211725301E+03   -0.11168E-03   -0.26663E-03 27420   0.115E-01    0.765E-02
DAV:   3    -0.628211704126E+03    0.21175E-04   -0.15286E-04 14880   0.367E-02
  67 F= -.62821170E+03 E0= -.62821170E+03  d E =-.174503E-03  mag=    20.0000
       N       E                     dE             d eps       ncg     rms          rms(c)
DAV:   1    -0.628211785987E+03   -0.60685E-04   -0.53070E-03 20484   0.141E-01    0.360E-02
DAV:   2    -0.628211809734E+03   -0.23748E-04   -0.32379E-04 16140   0.434E-02
  68 F= -.62821181E+03 E0= -.62821181E+03  d E =-.105608E-03  mag=    20.0000
       N       E                     dE             d eps       ncg     rms          rms(c)
DAV:   1    -0.628211990999E+03   -0.20501E-03   -0.99166E-03 22020   0.204E-01    0.745E-02
DAV:   2    -0.628211936296E+03    0.54703E-04   -0.58599E-04 23328   0.593E-02
  69 F= -.62821194E+03 E0= -.62821194E+03  d E =-.126561E-03  mag=    20.0000
       N       E                     dE             d eps       ncg     rms          rms(c)
DAV:   1    -0.628212007461E+03   -0.16462E-04   -0.54182E-02 21528   0.458E-01    0.932E-02
DAV:   2    -0.628212120927E+03   -0.11347E-03   -0.15945E-03 26520   0.912E-02    0.621E-02
DAV:   3    -0.628212118262E+03    0.26659E-05   -0.93807E-05 13536   0.256E-02
  70 F= -.62821212E+03 E0= -.62821212E+03  d E =-.181966E-03  mag=    20.0000
       N       E                     dE             d eps       ncg     rms          rms(c)
DAV:   1    -0.628212207551E+03   -0.86623E-04   -0.59119E-03 21816   0.152E-01    0.298E-02
DAV:   2    -0.628212218350E+03   -0.10799E-04   -0.17733E-04 12984   0.329E-02
  71 F= -.62821222E+03 E0= -.62821222E+03  d E =-.100088E-03  mag=    20.0000
       N       E                     dE             d eps       ncg     rms          rms(c)
DAV:   1    -0.628212269730E+03   -0.62179E-04   -0.14300E-03 22392   0.802E-02    0.369E-02
DAV:   2    -0.628212253323E+03    0.16407E-04   -0.82211E-05 11832   0.253E-02
  72 F= -.62821225E+03 E0= -.62821225E+03  d E =-.349739E-04  mag=    20.0000
       N       E                     dE             d eps       ncg     rms          rms(c)
DAV:   1    -0.628212312951E+03   -0.43221E-04   -0.25609E-02 21528   0.317E-01    0.689E-02
DAV:   2    -0.628212357716E+03   -0.44765E-04   -0.83611E-04 24672   0.711E-02
  73 F= -.62821236E+03 E0= -.62821236E+03  d E =-.104393E-03  mag=    20.0000
       N       E                     dE             d eps       ncg     rms          rms(c)
DAV:   1    -0.628212433575E+03   -0.12062E-03   -0.10391E-02 21528   0.195E-01    0.609E-02
DAV:   2    -0.628212429933E+03    0.36423E-05   -0.60107E-04 22548   0.578E-02
  74 F= -.62821243E+03 E0= -.62821243E+03  d E =-.722167E-04  mag=    20.0000
       N       E                     dE             d eps       ncg     rms          rms(c)
DAV:   1    -0.628212510886E+03   -0.77311E-04   -0.31951E-02 21528   0.352E-01    0.566E-02
DAV:   2    -0.628212602313E+03   -0.91428E-04   -0.95884E-04 24816   0.708E-02
  75 F= -.62821260E+03 E0= -.62821260E+03  d E =-.172381E-03  mag=    20.0000
       N       E                     dE             d eps       ncg     rms          rms(c)
DAV:   1    -0.628212672229E+03   -0.16134E-03   -0.26416E-02 21528   0.319E-01    0.570E-02
DAV:   2    -0.628212754977E+03   -0.82748E-04   -0.69640E-04 21780   0.594E-02
  76 F= -.62821275E+03 E0= -.62821275E+03  d E =-.152664E-03  mag=    20.0000
       N       E                     dE             d eps       ncg     rms          rms(c)
DAV:   1    -0.628212805022E+03   -0.13279E-03   -0.35285E-02 21528   0.366E-01    0.717E-02
DAV:   2    -0.628212926134E+03   -0.12111E-03   -0.96257E-04 25044   0.681E-02    0.465E-02
DAV:   3    -0.628212929603E+03   -0.34686E-05   -0.42703E-05 12384   0.175E-02
  77 F= -.62821293E+03 E0= -.62821293E+03  d E =-.174625E-03  mag=    20.0000
       N       E                     dE             d eps       ncg     rms          rms(c)
DAV:   1    -0.628212949452E+03   -0.23317E-04   -0.46371E-04 19008   0.426E-02    0.170E-02
DAV:   2    -0.628212949199E+03    0.25216E-06   -0.19903E-05 11808   0.120E-02
  78 F= -.62821295E+03 E0= -.62821295E+03  d E =-.195966E-04  mag=    20.0000
       N       E                     dE             d eps       ncg     rms          rms(c)
DAV:   1    -0.628213021162E+03   -0.71710E-04   -0.56645E-02 21528   0.470E-01    0.637E-02
DAV:   2    -0.628213163177E+03   -0.14202E-03   -0.15973E-03 24696   0.845E-02    0.413E-02
DAV:   3    -0.628213160370E+03    0.28079E-05   -0.49842E-05 11904   0.221E-02
  79 F= -.62821316E+03 E0= -.62821316E+03  d E =-.211170E-03  mag=    20.0000
       N       E                     dE             d eps       ncg     rms          rms(c)
DAV:   1    -0.628213206974E+03   -0.43797E-04   -0.31135E-03 20424   0.110E-01    0.237E-02
DAV:   2    -0.628213213524E+03   -0.65501E-05   -0.75078E-05 11352   0.210E-02
  80 F= -.62821321E+03 E0= -.62821321E+03  d E =-.531548E-04  mag=    20.0000
       N       E                     dE             d eps       ncg     rms          rms(c)
DAV:   1    -0.628213346750E+03   -0.13978E-03   -0.31542E-02 21528   0.353E-01    0.859E-02
DAV:   2    -0.628213379498E+03   -0.32748E-04   -0.10295E-03 25512   0.732E-02    0.569E-02
DAV:   3    -0.628213375327E+03    0.41710E-05   -0.84468E-05 13176   0.303E-02
  81 F= -.62821338E+03 E0= -.62821338E+03  d E =-.161803E-03  mag=    20.0000
       N       E                     dE             d eps       ncg     rms          rms(c)
DAV:   1    -0.628213459656E+03   -0.80157E-04   -0.29753E-02 21528   0.339E-01    0.492E-02
DAV:   2    -0.628213523302E+03   -0.63646E-04   -0.78583E-04 23448   0.587E-02
  82 F= -.62821352E+03 E0= -.62821352E+03  d E =-.147975E-03  mag=    20.0000
       N       E                     dE             d eps       ncg     rms          rms(c)
DAV:   1    -0.628213628367E+03   -0.16871E-03   -0.14019E-02 21828   0.238E-01    0.571E-02
DAV:   2    -0.628213632573E+03   -0.42059E-05   -0.44746E-04 19680   0.523E-02
  83 F= -.62821363E+03 E0= -.62821363E+03  d E =-.109271E-03  mag=    20.0000
       N       E                     dE             d eps       ncg     rms          rms(c)
DAV:   1    -0.628213649119E+03   -0.20751E-04   -0.16198E-03 22404   0.820E-02    0.458E-02
DAV:   2    -0.628213628325E+03    0.20794E-04   -0.13698E-04 14568   0.373E-02
  84 F= -.62821363E+03 E0= -.62821363E+03  d E =0.424824E-05  mag=    20.0000
       N       E                     dE             d eps       ncg     rms          rms(c)
DAV:   1    -0.628213710857E+03   -0.61738E-04   -0.42599E-02 21528   0.407E-01    0.579E-02
DAV:   2    -0.628213820010E+03   -0.10915E-03   -0.13796E-03 27408   0.868E-02    0.561E-02
DAV:   3    -0.628213808652E+03    0.11357E-04   -0.74666E-05 12228   0.279E-02
  85 F= -.62821381E+03 E0= -.62821381E+03  d E =-.180327E-03  mag=    20.0000
       N       E                     dE             d eps       ncg     rms          rms(c)
DAV:   1    -0.628213873539E+03   -0.53530E-04   -0.82212E-03 21576   0.180E-01    0.343E-02
DAV:   2    -0.628213881084E+03   -0.75447E-05   -0.24261E-04 13800   0.394E-02
  86 F= -.62821388E+03 E0= -.62821388E+03  d E =-.724315E-04  mag=    20.0000
       N       E                     dE             d eps       ncg     rms          rms(c)
DAV:   1    -0.628213950387E+03   -0.76848E-04   -0.11885E-02 21612   0.215E-01    0.356E-02
DAV:   2    -0.628213973061E+03   -0.22674E-04   -0.31056E-04 15024   0.395E-02
  87 F= -.62821397E+03 E0= -.62821397E+03  d E =-.919776E-04  mag=    20.0000
       N       E                     dE             d eps       ncg     rms          rms(c)
DAV:   1    -0.628214035652E+03   -0.85265E-04   -0.22019E-02 21564   0.291E-01    0.442E-02
DAV:   2    -0.628214099119E+03   -0.63467E-04   -0.57513E-04 21252   0.509E-02
  88 F= -.62821410E+03 E0= -.62821410E+03  d E =-.126057E-03  mag=    20.0000
       N       E                     dE             d eps       ncg     rms          rms(c)
DAV:   1    -0.628214114115E+03   -0.78463E-04   -0.22262E-04 14424   0.319E-02    0.187E-02
DAV:   2    -0.628214112136E+03    0.19797E-05   -0.23757E-05 11412   0.171E-02
  89 F= -.62821411E+03 E0= -.62821411E+03  d E =-.130170E-04  mag=    20.0000
       N       E                     dE             d eps       ncg     rms          rms(c)
DAV:   1    -0.628214110731E+03    0.33841E-05   -0.10231E-05 11388   0.872E-03    0.925E-03
DAV:   2    -0.628214110478E+03    0.25376E-06   -0.52154E-06 11256   0.557E-03
  90 F= -.62821411E+03 E0= -.62821411E+03  d E =0.165821E-05  mag=    20.0000
       N       E                     dE             d eps       ncg     rms          rms(c)
DAV:   1    -0.628214208600E+03   -0.97869E-04   -0.30890E-02 21528   0.349E-01    0.538E-02
DAV:   2    -0.628214255240E+03   -0.46640E-04   -0.94426E-04 23964   0.677E-02
  91 F= -.62821426E+03 E0= -.62821426E+03  d E =-.144762E-03  mag=    20.0000
       N       E                     dE             d eps       ncg     rms          rms(c)
DAV:   1    -0.628214303396E+03   -0.94796E-04   -0.10007E-02 21600   0.196E-01    0.379E-02
DAV:   2    -0.628214329155E+03   -0.25759E-04   -0.32297E-04 17016   0.437E-02
  92 F= -.62821433E+03 E0= -.62821433E+03  d E =-.739157E-04  mag=    20.0000
       N       E                     dE             d eps       ncg     rms          rms(c)
DAV:   1    -0.628214379317E+03   -0.75921E-04   -0.77954E-03 21480   0.173E-01    0.373E-02
DAV:   2    -0.628214398922E+03   -0.19605E-04   -0.18529E-04 14136   0.326E-02
  93 F= -.62821440E+03 E0= -.62821440E+03  d E =-.697667E-04  mag=    20.0000
       N       E                     dE             d eps       ncg     rms          rms(c)
DAV:   1    -0.628214363165E+03    0.16152E-04   -0.59732E-03 21600   0.146E-01    0.561E-02
DAV:   2    -0.628214365676E+03   -0.25112E-05   -0.56227E-04 22932   0.637E-02
  94 F= -.62821437E+03 E0= -.62821437E+03  d E =0.332458E-04  mag=    20.0000
       N       E                     dE             d eps       ncg     rms          rms(c)
DAV:   1    -0.628214323732E+03    0.39433E-04   -0.16174E-02 21756   0.255E-01    0.850E-02
DAV:   2    -0.628214332173E+03   -0.84413E-05   -0.12904E-03 29424   0.912E-02    0.761E-02
DAV:   3    -0.628214290371E+03    0.41802E-04   -0.16144E-04 15372   0.393E-02
  95 F= -.62821429E+03 E0= -.62821429E+03  d E =0.753049E-04  mag=    20.0000
       N       E                     dE             d eps       ncg     rms          rms(c)
DAV:   1    -0.628214400289E+03   -0.68116E-04   -0.55963E-02 21576   0.473E-01    0.102E-01
DAV:   2    -0.628214439983E+03   -0.39694E-04   -0.20683E-03 29280   0.108E-01    0.871E-02
DAV:   3    -0.628214421613E+03    0.18369E-04   -0.15448E-04 16044   0.399E-02
  96 F= -.62821442E+03 E0= -.62821442E+03  d E =-.131242E-03  mag=    20.0000
       N       E                     dE             d eps       ncg     rms          rms(c)
DAV:   1    -0.628214505010E+03   -0.65027E-04   -0.15699E-02 21528   0.248E-01    0.465E-02
DAV:   2    -0.628214550745E+03   -0.45735E-04   -0.50691E-04 21636   0.535E-02
  97 F= -.62821455E+03 E0= -.62821455E+03  d E =-.129132E-03  mag=    20.0000
       N       E                     dE             d eps       ncg     rms          rms(c)
DAV:   1    -0.628214624829E+03   -0.11982E-03   -0.12583E-02 21552   0.223E-01    0.707E-02
DAV:   2    -0.628214618133E+03    0.66962E-05   -0.42167E-04 20064   0.534E-02
  98 F= -.62821462E+03 E0= -.62821462E+03  d E =-.673880E-04  mag=    20.0000
       N       E                     dE             d eps       ncg     rms          rms(c)
DAV:   1    -0.628214650969E+03   -0.26140E-04   -0.69468E-03 21624   0.164E-01    0.489E-02
DAV:   2    -0.628214652786E+03   -0.18165E-05   -0.20724E-04 16344   0.397E-02
  99 F= -.62821465E+03 E0= -.62821465E+03  d E =-.346526E-04  mag=    20.0000
       N       E                     dE             d eps       ncg     rms          rms(c)
DAV:   1    -0.628214628597E+03    0.22372E-04   -0.51010E-02 21528   0.441E-01    0.828E-02
DAV:   2    -0.628214748139E+03   -0.11954E-03   -0.20852E-03 27720   0.110E-01    0.955E-02
DAV:   3    -0.628214730598E+03    0.17541E-04   -0.16031E-04 13728   0.329E-02
 100 F= -.62821473E+03 E0= -.62821473E+03  d E =-.778119E-04  mag=    20.0000
       N       E                     dE             d eps       ncg     rms          rms(c)
DAV:   1    -0.628214812123E+03   -0.63984E-04   -0.92174E-03 21336   0.176E-01    0.494E-02
DAV:   2    -0.628214869320E+03   -0.57198E-04   -0.91420E-04 26520   0.657E-02
 101 F= -.62821487E+03 E0= -.62821487E+03  d E =-.138723E-03  mag=    20.0000
       N       E                     dE             d eps       ncg     rms          rms(c)
DAV:   1    -0.628214940978E+03   -0.12886E-03   -0.28076E-02 21528   0.334E-01    0.775E-02
DAV:   2    -0.628214964306E+03   -0.23327E-04   -0.97563E-04 25908   0.715E-02
 102 F= -.62821496E+03 E0= -.62821496E+03  d E =-.949853E-04  mag=    20.0000
       N       E                     dE             d eps       ncg     rms          rms(c)
DAV:   1    -0.628214995266E+03   -0.54287E-04   -0.21014E-02 21576   0.286E-01    0.522E-02
DAV:   2    -0.628215059391E+03   -0.64126E-04   -0.59356E-04 21048   0.566E-02
 103 F= -.62821506E+03 E0= -.62821506E+03  d E =-.950857E-04  mag=    20.0000
