BiTiFeO                                 
           1
     5.509066    0.000000    0.000000
     0.000000    5.494032   -0.001822
     0.000000   -0.013510   40.369965
   Bi   Ti   O    Fe
  20  12  60   4
Direct configuration=     1
   0.24484409  0.23757862  0.00000000
   0.74484408  0.76242137  0.00000000
   0.24484409  0.73757863  0.50000000
   0.74484408  0.26242140  0.50000000
   0.25198972  0.24830766  0.10393570
   0.75198966  0.75169236  0.89606434
   0.75198966  0.75169236  0.10393570
   0.25198972  0.24830766  0.89606434
   0.25198972  0.74830764  0.60393566
   0.75198966  0.25169236  0.39606428
   0.75198966  0.25169236  0.60393566
   0.25198972  0.74830764  0.39606428
   0.22412699  0.27433315  0.21935007
   0.72412699  0.72566688  0.78064990
   0.72412699  0.72566688  0.21935007
   0.22412699  0.27433315  0.78064990
   0.22412699  0.77433312  0.71935010
   0.72412699  0.22566684  0.28064990
   0.72412699  0.22566684  0.71935010
   0.22412699  0.77433312  0.28064990
   0.79682386  0.74890918  0.34797305
   0.79682386  0.24890919  0.84797305
   0.29682383  0.25109082  0.65202695
   0.29682383  0.75109082  0.15202695
   0.29357013  0.24638395  0.45064172
   0.29357013  0.74638396  0.95064175
   0.79357010  0.75361604  0.45064172
   0.79357010  0.25361604  0.95064175
   0.29357013  0.24638395  0.54935825
   0.29357013  0.74638396  0.04935827
   0.79357010  0.75361604  0.54935825
   0.79357010  0.25361604  0.04935827
   0.31881350  0.15770908  0.50000000
   0.81881350  0.84229094  0.50000000
   0.31881350  0.65770906  0.00000000
   0.81881350  0.34229094  0.00000000
   0.60082728  0.55501008  0.05564614
   0.10082728  0.44498989  0.94435388
   0.10082728  0.44498989  0.05564614
   0.60082728  0.55501008  0.94435388
   0.60082728  0.05501010  0.55564612
   0.10082728  0.94498992  0.44435385
   0.10082728  0.94498992  0.55564612
   0.60082728  0.05501010  0.44435385
   0.32772058  0.32494432  0.40226784
   0.82772058  0.67505568  0.59773213
   0.82772058  0.67505568  0.40226784
   0.32772058  0.32494432  0.59773213
   0.32772058  0.82494432  0.90226787
   0.82772058  0.17505567  0.09773216
   0.82772058  0.17505567  0.90226787
   0.32772058  0.82494432  0.09773216
   0.53021055  0.47461614  0.13739407
   0.03021055  0.52538383  0.86260593
   0.03021055  0.52538383  0.13739407
   0.53021055  0.47461614  0.86260593
   0.53021055  0.97461617  0.63739407
   0.03021055  0.02538385  0.36260590
   0.03021055  0.02538385  0.63739407
   0.53021055  0.97461617  0.36260590
   0.29461476  0.18484382  0.30443299
   0.79461479  0.81515616  0.69556701
   0.79461479  0.81515616  0.30443299
   0.29461476  0.18484382  0.69556701
   0.29461476  0.68484384  0.80443299
   0.79461479  0.31515619  0.19556700
   0.79461479  0.31515619  0.80443299
   0.29461476  0.68484384  0.19556700
   0.49390233  0.49391797  0.25123006
   0.99390238  0.50608200  0.74876994
   0.99390238  0.50608200  0.25123006
   0.49390233  0.49391797  0.74876994
   0.49390233  0.99391800  0.75123006
   0.99390238  0.00608201  0.24876994
   0.99390238  0.00608201  0.75123006
   0.49390233  0.99391800  0.24876994
   0.00880992  0.95784479  0.03788698
   0.50880992  0.04215522  0.96211302
   0.50880992  0.04215522  0.03788698
   0.00880992  0.95784479  0.96211302
   0.00880992  0.45784476  0.53788698
   0.50880992  0.54215521  0.46211302
   0.50880992  0.54215521  0.53788698
   0.00880992  0.45784476  0.46211302
   0.10677507  0.05355787  0.15066576
   0.60677504  0.94644213  0.84933424
   0.60677504  0.94644213  0.15066576
   0.10677507  0.05355787  0.84933424
   0.10677507  0.55355787  0.65066576
   0.60677504  0.44644213  0.34933424
   0.60677504  0.44644213  0.65066576
   0.10677507  0.55355787  0.34933424
   0.29682383  0.25109082  0.34797305
   0.29682383  0.75109082  0.84797305
   0.79682386  0.74890918  0.65202695
   0.79682386  0.24890919  0.15202695
BiTiFeO                                 
           1
     5.523517    0.000000    0.000000
     0.000000    5.511757   -0.003381
     0.000000   -0.024831   40.905170
   Bi   Ti   O    Fe
  20  12  60   4
Direct configuration=     2
   0.24589914  0.23878130 -0.00000514
   0.74589912  0.76121869  0.00000514
   0.24589914  0.73878131  0.49999486
   0.74589912  0.26121872  0.50000514
   0.25379514  0.25060176  0.10759267
   0.75379508  0.74939826  0.89240738
   0.75469106  0.74988643  0.10762613
   0.25469112  0.25011359  0.89237391
   0.25379514  0.75060174  0.60759262
   0.75379508  0.24939826  0.39240732
   0.75469106  0.24988643  0.60762609
   0.25469112  0.75011357  0.39237385
   0.22180879  0.27376498  0.21923011
   0.72180879  0.72623505  0.78076986
   0.72541689  0.72313302  0.21918528
   0.22541689  0.27686701  0.78081469
   0.22180879  0.77376495  0.71923014
   0.72180879  0.22623500  0.28076986
   0.72541689  0.22313297  0.71918531
   0.22541689  0.77686698  0.28081469
   0.79847079  0.74817597  0.34647723
   0.79847079  0.24817599  0.84647723
   0.29847076  0.25182403  0.65352277
   0.29847076  0.75182403  0.15352277
   0.29314232  0.24580084  0.44813150
   0.29314232  0.74580086  0.94813153
   0.79313692  0.75465916  0.44838788
   0.79313692  0.25465916  0.94838791
   0.29313695  0.24534083  0.55161209
   0.29313695  0.74534084  0.05161211
   0.79314229  0.75419914  0.55186847
   0.79314229  0.25419914  0.05186849
   0.31925366  0.15933255  0.50006102
   0.81925366  0.84066747  0.49993898
   0.31925366  0.65933253  0.00006102
   0.81925366  0.34066747 -0.00006102
   0.59882166  0.55075464  0.05429263
   0.09882166  0.44924533  0.94570739
   0.09948627  0.44987207  0.05430355
   0.59948627  0.55012790  0.94569646
   0.59882166  0.05075466  0.55429261
   0.09882166  0.94924536  0.44570736
   0.09948627  0.94987210  0.55430354
   0.59948627  0.05012792  0.44569643
   0.32488056  0.32114564  0.40524503
   0.82488056  0.67885436  0.59475494
   0.82452921  0.67911409  0.40517690
   0.32452921  0.32088591  0.59482307
   0.32488056  0.82114564  0.90524506
   0.82488056  0.17885435  0.09475497
   0.82452921  0.17911408  0.90517693
   0.32452921  0.82088591  0.09482310
   0.52834736  0.47474615  0.13604586
   0.02834735  0.52525382  0.86395414
   0.02966557  0.52628030  0.13608624
   0.52966558  0.47371967  0.86391376
   0.52834736  0.97474618  0.63604586
   0.02834735  0.02525384  0.36395411
   0.02966557  0.02628032  0.63608624
   0.52966558  0.97371970  0.36391373
   0.29573744  0.18350220  0.30448520
   0.79573747  0.81649779  0.69551480
   0.79420306  0.81397471  0.30487267
   0.29420303  0.18602528  0.69512733
   0.29573744  0.68350221  0.80448520
   0.79573747  0.31649782  0.19551478
   0.79420306  0.31397474  0.80487267
   0.29420303  0.68602529  0.19512731
   0.49422150  0.49472210  0.25127325
   0.99422156  0.50527787  0.74872675
   0.99374781  0.50670121  0.25121147
   0.49374775  0.49329876  0.74878853
   0.49422150  0.99472213  0.75127325
   0.99422156  0.00527788  0.24872675
   0.99374781  0.00670122  0.75121147
   0.49374775  0.99329879  0.24878853
   0.00990886  0.95935770  0.03770114
   0.50990886  0.04064232  0.96229886
   0.50950102  0.04031389  0.03774156
   0.00950102  0.95968613  0.96225844
   0.00990886  0.45935767  0.53770114
   0.50990886  0.54064230  0.46229886
   0.50950102  0.54031387  0.53774156
   0.00950102  0.45968610  0.46225844
   0.10975359  0.05493718  0.14941648
   0.60975357  0.94506282  0.85058352
   0.60812968  0.94228685  0.14936801
   0.10812971  0.05771315  0.85063199
   0.10975359  0.55493718  0.64941648
   0.60975357  0.44506282  0.35058352
   0.60812968  0.44228685  0.64936801
   0.10812971  0.55771315  0.35063199
   0.29585160  0.25022379  0.34645315
   0.29585160  0.75022379  0.84645315
   0.79585163  0.74977621  0.65354685
   0.79585163  0.24977623  0.15354685
BiTiFeO                                 
           1
     5.506413    0.000000    0.000000
     0.000000    5.494207   -0.000130
     0.000000   -0.000592   40.960830
   Bi   Ti   O    Fe
  20  12  60   4
Direct configuration=     3
   0.24565505  0.23954253 -0.00000491
   0.74565503  0.76045745  0.00000491
   0.24565505  0.73954255  0.49999509
   0.74565503  0.26045748  0.50000491
   0.25467423  0.25115224  0.10708372
   0.75467417  0.74884778  0.89291632
   0.75579647  0.74925601  0.10710258
   0.25579653  0.25074401  0.89289747
   0.25467423  0.75115222  0.60708368
   0.75467417  0.24884778  0.39291626
   0.75579647  0.24925601  0.60710253
   0.25579653  0.75074399  0.39289741
   0.22129680  0.27321077  0.21920489
   0.72129680  0.72678926  0.78079508
   0.72626178  0.72282692  0.21911323
   0.22626178  0.27717311  0.78088674
   0.22129680  0.77321074  0.71920492
   0.72129680  0.22678922  0.28079508
   0.72626178  0.22282688  0.71911326
   0.22626178  0.77717308  0.28088674
   0.79823970  0.74766171  0.34741651
   0.79823970  0.24766172  0.84741651
   0.29823967  0.25233829  0.65258349
   0.29823967  0.75233829  0.15258349
   0.29227714  0.24535778  0.44934820
   0.29227714  0.74535780  0.94934823
   0.79237738  0.75491176  0.44953476
   0.79237738  0.25491176  0.94953479
   0.29237741  0.24508822  0.55046521
   0.29237741  0.74508824  0.05046523
   0.79227711  0.75464220  0.55065177
   0.79227711  0.25464220  0.05065179
   0.31952547  0.16001700  0.50005710
   0.81952547  0.83998301  0.49994290
   0.31952547  0.66001699  0.00005710
   0.81952547  0.33998301 -0.00005710
   0.59911904  0.55076379  0.05442649
   0.09911904  0.44923618  0.94557353
   0.09954671  0.44965752  0.05443799
   0.59954671  0.55034245  0.94556202
   0.59911904  0.05076380  0.55442647
   0.09911904  0.94923621  0.44557350
   0.09954671  0.94965755  0.55443798
   0.59954671  0.05034246  0.44556199
   0.32469044  0.32227919  0.40435554
   0.82469044  0.67772081  0.59564443
   0.82427426  0.67809398  0.40430867
   0.32427426  0.32190602  0.59569130
   0.32469044  0.82227919  0.90435557
   0.82469044  0.17772079  0.09564446
   0.82427426  0.17809396  0.90430870
   0.32427426  0.82190602  0.09569133
   0.52841293  0.47502996  0.13627210
   0.02841292  0.52497001  0.86372790
   0.03037798  0.52649923  0.13632036
   0.53037799  0.47350074  0.86367964
   0.52841293  0.97502999  0.63627210
   0.02841292  0.02497003  0.36372787
   0.03037798  0.02649924  0.63632036
   0.53037799  0.97350077  0.36367961
   0.29594746  0.18253530  0.30393333
   0.79594749  0.81746469  0.69606667
   0.79381304  0.81483171  0.30406841
   0.29381301  0.18516828  0.69593159
   0.29594746  0.68253531  0.80393333
   0.79594749  0.31746472  0.19606666
   0.79381304  0.31483174  0.80406841
   0.29381301  0.68516829  0.19593158
   0.49417611  0.49486996  0.25130045
   0.99417617  0.50513001  0.74869955
   0.99370873  0.50689124  0.25124078
   0.49370867  0.49310873  0.74875922
   0.49417611  0.99486999  0.75130045
   0.99417617  0.00513002  0.24869955
   0.99370873  0.00689125  0.75124078
   0.49370867  0.99310876  0.24875922
   0.01047630  0.95967946  0.03789770
   0.51047630  0.04032056  0.96210230
   0.51017445  0.04010336  0.03794027
   0.01017445  0.95989665  0.96205973
   0.01047630  0.45967943  0.53789770
   0.51047630  0.54032054  0.46210230
   0.51017445  0.54010335  0.53794027
   0.01017445  0.45989662  0.46205973
   0.10883804  0.05374841  0.14964494
   0.60883802  0.94625159  0.85035506
   0.60727376  0.94341303  0.14960606
   0.10727378  0.05658697  0.85039394
   0.10883804  0.55374841  0.64964494
   0.60883802  0.44625159  0.35035506
   0.60727376  0.44341303  0.64960606
   0.10727378  0.55658697  0.35039394
   0.29546667  0.25056650  0.34685655
   0.29546667  0.75056650  0.84685655
   0.79546670  0.74943350  0.65314345
   0.79546670  0.24943352  0.15314345
BiTiFeO                                 
           1
     5.508811    0.000000    0.000000
     0.000000    5.496988   -0.000344
     0.000000   -0.002151   41.011635
   Bi   Ti   O    Fe
  20  12  60   4
Direct configuration=     4
   0.24559977  0.24065204 -0.00000149
   0.74559975  0.75934794  0.00000149
   0.24559977  0.74065206  0.49999851
   0.74559975  0.25934797  0.50000149
   0.25500050  0.25144068  0.10685746
   0.75500044  0.74855934  0.89314258
   0.75726788  0.74897269  0.10685873
   0.25726794  0.25102733  0.89314131
   0.25500050  0.75144066  0.60685742
   0.75500044  0.24855934  0.39314252
   0.75726788  0.24897269  0.60685869
   0.25726794  0.75102731  0.39314125
   0.21944923  0.27278950  0.21957280
   0.71944923  0.72721053  0.78042717
   0.72761622  0.72122656  0.21938815
   0.22761622  0.27877347  0.78061182
   0.21944923  0.77278947  0.71957283
   0.71944923  0.22721049  0.28042717
   0.72761622  0.22122652  0.71938818
   0.22761622  0.77877344  0.28061182
   0.79787579  0.75009846  0.34657047
   0.79787579  0.25009847  0.84657047
   0.29787576  0.24990154  0.65342953
   0.29787576  0.74990154  0.15342953
   0.29197050  0.24683019  0.44965966
   0.29197050  0.74683021  0.94965969
   0.79202539  0.75359743  0.44991734
   0.79202539  0.25359743  0.94991737
   0.29202542  0.24640255  0.55008263
   0.29202542  0.74640257  0.05008266
   0.79197047  0.75316979  0.55034031
   0.79197047  0.25316979  0.05034034
   0.32037623  0.16206639  0.50005199
   0.82037623  0.83793362  0.49994801
   0.32037623  0.66206638  0.00005199
   0.82037623  0.33793362 -0.00005199
   0.59924169  0.55028563  0.05421895
   0.09924169  0.44971434  0.94578106
   0.09944618  0.45004459  0.05423414
   0.59944618  0.54995538  0.94576587
   0.59924169  0.05028565  0.55421894
   0.09924169  0.94971437  0.44578103
   0.09944618  0.95004462  0.55423413
   0.59944618  0.04995539  0.44576584
   0.32276462  0.32145030  0.40460447
   0.82276462  0.67854970  0.59539550
   0.82222876  0.67904414  0.40436588
   0.32222876  0.32095586  0.59563409
   0.32276462  0.82145030  0.90460450
   0.82276462  0.17854968  0.09539553
   0.82222876  0.17904412  0.90436591
   0.32222876  0.82095586  0.09563412
   0.52840867  0.47559698  0.13649302
   0.02840866  0.52440299  0.86350698
   0.03174174  0.52708421  0.13655928
   0.53174175  0.47291576  0.86344072
   0.52840867  0.97559701  0.63649302
   0.02840866  0.02440300  0.36350695
   0.03174174  0.02708423  0.63655928
   0.53174175  0.97291579  0.36344069
   0.29685982  0.18211394  0.30397775
   0.79685985  0.81788604  0.69602225
   0.79324503  0.81276849  0.30490377
   0.29324500  0.18723150  0.69509623
   0.29685982  0.68211396  0.80397775
   0.79685985  0.31788607  0.19602223
   0.79324503  0.31276852  0.80490377
   0.29324500  0.68723151  0.19509621
   0.49437992  0.49507414  0.25127430
   0.99437998  0.50492583  0.74872570
   0.99406523  0.50719145  0.25123797
   0.49406518  0.49280852  0.74876203
   0.49437992  0.99507417  0.75127430
   0.99437998  0.00492584  0.24872570
   0.99406523  0.00719147  0.75123797
   0.49406518  0.99280855  0.24876203
   0.01202105  0.96072438  0.03804641
   0.51202105  0.03927563  0.96195359
   0.51178893  0.03917844  0.03810129
   0.01178893  0.96082158  0.96189871
   0.01202105  0.46072435  0.53804641
   0.51202105  0.53927562  0.46195359
   0.51178893  0.53917842  0.53810129
   0.01178893  0.46082155  0.46189871
   0.10790199  0.05264976  0.14951591
   0.60790197  0.94735024  0.85048409
   0.60649466  0.94409379  0.14949043
   0.10649468  0.05590621  0.85050957
   0.10790199  0.55264976  0.64951591
   0.60790197  0.44735024  0.35048409
   0.60649466  0.44409379  0.64949043
   0.10649468  0.55590621  0.35050957
   0.29463014  0.24935550  0.34625419
   0.29463014  0.74935550  0.84625419
   0.79463017  0.75064450  0.65374581
   0.79463017  0.25064451  0.15374581
BiTiFeO                                 
           1
     5.503209    0.000000    0.000000
     0.000000    5.490636   -0.003216
     0.000000   -0.023522   41.119765
   Bi   Ti   O    Fe
  20  12  60   4
Direct configuration=     5
   0.24556545  0.24065932 -0.00000157
   0.74556544  0.75934067  0.00000157
   0.24556545  0.74065933  0.49999843
   0.74556544  0.25934070  0.50000157
   0.25508859  0.25151332  0.10680566
   0.75508853  0.74848669  0.89319439
   0.75733255  0.74889462  0.10680561
   0.25733261  0.25110540  0.89319443
   0.25508859  0.75151331  0.60680561
   0.75508853  0.24848669  0.39319433
   0.75733255  0.24889462  0.60680557
   0.25733261  0.75110538  0.39319437
   0.21950909  0.27277001  0.21955511
   0.71950909  0.72723002  0.78044486
   0.72760703  0.72128505  0.21937105
   0.22760703  0.27871498  0.78062892
   0.21950909  0.77276998  0.71955514
   0.71950909  0.22722997  0.28044486
   0.72760703  0.22128500  0.71937108
   0.22760703  0.77871495  0.28062892
   0.79784334  0.74999986  0.34667490
   0.79784334  0.24999987  0.84667490
   0.29784331  0.25000014  0.65332510
   0.29784331  0.75000014  0.15332510
   0.29187276  0.24670464  0.44979727
   0.29187276  0.74670465  0.94979730
   0.79193496  0.75370052  0.45004909
   0.79193496  0.25370052  0.95004912
   0.29193499  0.24629946  0.54995088
   0.29193499  0.74629948  0.04995090
   0.79187273  0.75329535  0.55020270
   0.79187273  0.25329535  0.05020272
   0.32035436  0.16200867  0.50005196
   0.82035436  0.83799134  0.49994804
   0.32035436  0.66200866  0.00005196
   0.82035436  0.33799134 -0.00005196
   0.59926862  0.55031331  0.05425293
   0.09926862  0.44968666  0.94574708
   0.09945906  0.44999718  0.05426829
   0.59945906  0.55000279  0.94573172
   0.59926862  0.05031333  0.55425292
   0.09926862  0.94968669  0.44574705
   0.09945906  0.94999721  0.55426828
   0.59945906  0.05000281  0.44573169
   0.32287241  0.32165080  0.40447596
   0.82287241  0.67834920  0.59552401
   0.82233614  0.67884790  0.40424531
   0.32233614  0.32115210  0.59575466
   0.32287241  0.82165080  0.90447599
   0.82287241  0.17834919  0.09552404
   0.82233614  0.17884789  0.90424534
   0.32233614  0.82115210  0.09575469
   0.52840069  0.47561629  0.13650387
   0.02840068  0.52438368  0.86349613
   0.03177753  0.52710150  0.13657050
   0.53177754  0.47289847  0.86342950
   0.52840069  0.97561632  0.63650387
   0.02840068  0.02438370  0.36349610
   0.03177753  0.02710152  0.63657050
   0.53177754  0.97289850  0.36342947
   0.29681776  0.18205864  0.30392975
   0.79681779  0.81794134  0.69607025
   0.79325128  0.81292019  0.30481302
   0.29325125  0.18707980  0.69518698
   0.29681776  0.68205866  0.80392975
   0.79681779  0.31794137  0.19607023
   0.79325128  0.31292022  0.80481302
   0.29325125  0.68707981  0.19518697
   0.49437367  0.49506823  0.25127924
   0.99437373  0.50493174  0.74872076
   0.99404493  0.50718561  0.25123980
   0.49404487  0.49281436  0.74876020
   0.49437367  0.99506826  0.75127924
   0.99437373  0.00493175  0.24872076
   0.99404493  0.00718562  0.75123980
   0.49404487  0.99281439  0.24876020
   0.01199673  0.96068989  0.03806425
   0.51199673  0.03931012  0.96193575
   0.51177350  0.03922024  0.03811861
   0.01177350  0.96077977  0.96188139
   0.01199673  0.46068986  0.53806425
   0.51199673  0.53931011  0.46193575
   0.51177350  0.53922023  0.53811861
   0.01177350  0.46077974  0.46188139
   0.10786979  0.05255361  0.14955205
   0.60786977  0.94744639  0.85044795
   0.60642106  0.94417962  0.14952742
   0.10642108  0.05582038  0.85047258
   0.10786979  0.55255361  0.64955205
   0.60786977  0.44744639  0.35044795
   0.60642106  0.44417962  0.64952742
   0.10642108  0.55582038  0.35047258
   0.29462863  0.24943177  0.34632221
   0.29462863  0.74943177  0.84632221
   0.79462866  0.75056823  0.65367779
   0.79462866  0.25056824  0.15367779
BiTiFeO                                 
           1
     5.504287    0.000000    0.000000
     0.000000    5.492431   -0.001023
     0.000000   -0.007069   41.147335
   Bi   Ti   O    Fe
  20  12  60   4
Direct configuration=     6
   0.24596354  0.24150987 -0.00000241
   0.74596352  0.75849012  0.00000241
   0.24596354  0.74150988  0.49999759
   0.74596352  0.25849015  0.50000241
   0.25491410  0.25062460  0.10706314
   0.75491404  0.74937541  0.89293691
   0.75712984  0.74965200  0.10707888
   0.25712990  0.25034801  0.89292116
   0.25491410  0.75062459  0.60706309
   0.75491404  0.24937541  0.39293685
   0.75712984  0.24965200  0.60707884
   0.25712990  0.75034800  0.39292110
   0.21814138  0.27201753  0.21957946
   0.71814138  0.72798250  0.78042051
   0.72908744  0.72036189  0.21933135
   0.22908744  0.27963814  0.78066862
   0.21814138  0.77201750  0.71957949
   0.71814138  0.22798245  0.28042051
   0.72908744  0.22036184  0.71933138
   0.22908744  0.77963811  0.28066862
   0.79865006  0.74807978  0.34762729
   0.79865006  0.24807980  0.84762729
   0.29865003  0.25192022  0.65237271
   0.29865003  0.75192022  0.15237271
   0.29238000  0.24698796  0.44909990
   0.29238000  0.74698797  0.94909993
   0.79262006  0.75327608  0.44920889
   0.79262006  0.25327608  0.94920892
   0.29262009  0.24672390  0.55079108
   0.29262009  0.74672392  0.05079110
   0.79237997  0.75301203  0.55090007
   0.79237997  0.25301203  0.05090009
   0.32087757  0.16351765  0.50004318
   0.82087757  0.83648237  0.49995682
   0.32087757  0.66351763  0.00004318
   0.82087757  0.33648237 -0.00004318
   0.59921327  0.54999312  0.05384751
   0.09921327  0.45000685  0.94615250
   0.09932198  0.45035094  0.05385340
   0.59932198  0.54964903  0.94614661
   0.59921327  0.04999314  0.55384750
   0.09921327  0.95000688  0.44615247
   0.09932198  0.95035097  0.55385339
   0.59932198  0.04964905  0.44614659
   0.32135042  0.32030926  0.40521002
   0.82135042  0.67969074  0.59478995
   0.82078462  0.68023872  0.40504825
   0.32078462  0.31976128  0.59495172
   0.32135042  0.82030926  0.90521005
   0.82135042  0.17969073  0.09478998
   0.82078462  0.18023870  0.90504828
   0.32078462  0.81976128  0.09495175
   0.52890501  0.47519780  0.13663448
   0.02890500  0.52480217  0.86336552
   0.03123179  0.52648085  0.13669167
   0.53123180  0.47351912  0.86330833
   0.52890501  0.97519783  0.63663448
   0.02890500  0.02480218  0.36336549
   0.03123179  0.02648086  0.63669167
   0.53123180  0.97351915  0.36330830
   0.29768894  0.18100673  0.30350890
   0.79768897  0.81899325  0.69649110
   0.79245786  0.81372171  0.30389422
   0.29245783  0.18627828  0.69610578
   0.29768894  0.68100675  0.80350890
   0.79768897  0.31899328  0.19649109
   0.79245786  0.31372174  0.80389422
   0.29245783  0.68627829  0.19610577
   0.49418281  0.49551868  0.25124897
   0.99418287  0.50448129  0.74875103
   0.99408378  0.50764740  0.25127674
   0.49408372  0.49235257  0.74872326
   0.49418281  0.99551871  0.75124897
   0.99418287  0.00448130  0.24875103
   0.99408378  0.00764741  0.75127674
   0.49408372  0.99235260  0.24872326
   0.01267101  0.96160313  0.03794579
   0.51267101  0.03839688  0.96205421
   0.51243477  0.03829578  0.03800853
   0.01243477  0.96170424  0.96199147
   0.01267101  0.46160310  0.53794579
   0.51267101  0.53839687  0.46205421
   0.51243477  0.53829576  0.53800853
   0.01243477  0.46170421  0.46199147
   0.10697670  0.05303203  0.14935133
   0.60697668  0.94696797  0.85064867
   0.60687349  0.94436534  0.14931451
   0.10687352  0.05563466  0.85068549
   0.10697670  0.55303203  0.64935133
   0.60697668  0.44696797  0.35064867
   0.60687349  0.44436534  0.64931451
   0.10687352  0.55563466  0.35068549
   0.29445949  0.24978710  0.34628846
   0.29445949  0.74978710  0.84628846
   0.79445952  0.75021290  0.65371154
   0.79445952  0.25021292  0.15371154
BiTiFeO                                 
           1
     5.480536    0.000000    0.000000
     0.000000    5.470556   -0.002167
     0.000000   -0.015452   41.512743
   Bi   Ti   O    Fe
  20  12  60   4
Direct configuration=     7
   0.24582258  0.24204018 -0.00000147
   0.74582256  0.75795981  0.00000147
   0.24582258  0.74204019  0.49999853
   0.74582256  0.25795984  0.50000147
   0.25488137  0.25104748  0.10692655
   0.75488132  0.74895254  0.89307350
   0.75772217  0.74930160  0.10692971
   0.25772223  0.25069841  0.89307033
   0.25488137  0.75104746  0.60692650
   0.75488132  0.24895254  0.39307344
   0.75772217  0.24930160  0.60692967
   0.25772223  0.75069840  0.39307027
   0.21804648  0.27205326  0.21960921
   0.71804648  0.72794677  0.78039076
   0.72923526  0.72028067  0.21936977
   0.22923526  0.27971936  0.78063020
   0.21804648  0.77205323  0.71960924
   0.71804648  0.22794673  0.28039076
   0.72923526  0.22028062  0.71936980
   0.22923526  0.77971933  0.28063020
   0.79833559  0.74946416  0.34685699
   0.79833559  0.24946417  0.84685699
   0.29833556  0.25053584  0.65314301
   0.29833556  0.75053584  0.15314301
   0.29221624  0.24703201  0.44967292
   0.29221624  0.74703202  0.94967295
   0.79241477  0.75336443  0.44983890
   0.79241477  0.25336443  0.94983893
   0.29241480  0.24663556  0.55016107
   0.29241480  0.74663557  0.05016109
   0.79221621  0.75296798  0.55032705
   0.79221621  0.25296798  0.05032708
   0.32112878  0.16399059  0.50005558
   0.82112878  0.83600942  0.49994442
   0.32112878  0.66399058  0.00005558
   0.82112878  0.33600942 -0.00005558
   0.59931719  0.55022209  0.05387645
   0.09931719  0.44977788  0.94612356
   0.09953027  0.45027791  0.05388323
   0.59953027  0.54972206  0.94611679
   0.59931719  0.05022210  0.55387644
   0.09931719  0.94977791  0.44612353
   0.09953027  0.95027794  0.55388321
   0.59953027  0.04972207  0.44611676
   0.32108533  0.32072473  0.40487794
   0.82108533  0.67927527  0.59512203
   0.82044750  0.67992471  0.40462234
   0.32044750  0.32007529  0.59537763
   0.32108533  0.82072473  0.90487797
   0.82108533  0.17927526  0.09512206
   0.82044750  0.17992470  0.90462237
   0.32044750  0.82007529  0.09537766
   0.52892504  0.47528149  0.13666113
   0.02892503  0.52471848  0.86333887
   0.03126131  0.52648175  0.13671528
   0.53126132  0.47351822  0.86328472
   0.52892504  0.97528152  0.63666113
   0.02892503  0.02471850  0.36333884
   0.03126131  0.02648177  0.63671528
   0.53126132  0.97351825  0.36328469
   0.29790658  0.18132050  0.30361643
   0.79790661  0.81867948  0.69638357
   0.79236149  0.81248877  0.30453888
   0.29236146  0.18751121  0.69546112
   0.29790658  0.68132052  0.80361643
   0.79790661  0.31867951  0.19638356
   0.79236149  0.31248880  0.80453888
   0.29236146  0.68751123  0.19546110
   0.49412277  0.49548942  0.25122659
   0.99412283  0.50451055  0.74877341
   0.99418814  0.50761068  0.25129451
   0.49418808  0.49238929  0.74870549
   0.49412277  0.99548945  0.75122659
   0.99412283  0.00451057  0.24877341
   0.99418814  0.00761069  0.75129451
   0.49418808  0.99238932  0.24870549
   0.01314161  0.96176185  0.03803221
   0.51314161  0.03823817  0.96196779
   0.51279316  0.03806667  0.03809776
   0.01279315  0.96193335  0.96190224
   0.01314161  0.46176182  0.53803221
   0.51314161  0.53823815  0.46196779
   0.51279316  0.53806665  0.53809776
   0.01279315  0.46193332  0.46190224
   0.10652982  0.05268301  0.14926656
   0.60652980  0.94731699  0.85073344
   0.60656944  0.94482586  0.14924360
   0.10656947  0.05517414  0.85075640
   0.10652982  0.55268301  0.64926656
   0.60652980  0.44731699  0.35073344
   0.60656944  0.44482586  0.64924360
   0.10656947  0.55517414  0.35075640
   0.29441703  0.24917557  0.34603157
   0.29441703  0.74917557  0.84603157
   0.79441706  0.75082443  0.65396843
   0.79441706  0.25082444  0.15396843
BiTiFeO                                 
           1
     5.500064    0.000000    0.000000
     0.000000    5.488772   -0.001935
     0.000000   -0.013809   41.349367
   Bi   Ti   O    Fe
  20  12  60   4
Direct configuration=     8
   0.24651632  0.24512873 -0.00000573
   0.74651630  0.75487125  0.00000573
   0.24651632  0.74512875  0.49999427
   0.74651630  0.25487128  0.50000573
   0.25379822  0.25068748  0.10658145
   0.75379816  0.74931254  0.89341859
   0.75893202  0.74979059  0.10657202
   0.25893208  0.25020942  0.89342803
   0.25379822  0.75068746  0.60658141
   0.75379816  0.24931254  0.39341853
   0.75893202  0.24979059  0.60657197
   0.25893208  0.75020941  0.39342797
   0.21463520  0.27060589  0.21976837
   0.71463520  0.72939414  0.78023160
   0.73310276  0.71842284  0.21946668
   0.23310276  0.28157719  0.78053329
   0.21463520  0.77060586  0.71976840
   0.71463520  0.22939409  0.28023160
   0.73310276  0.21842279  0.71946671
   0.23310276  0.78157716  0.28053329
   0.79827224  0.75028910  0.34705676
   0.79827224  0.25028911  0.84705676
   0.29827221  0.24971090  0.65294324
   0.29827221  0.74971090  0.15294324
   0.29273162  0.24894501  0.45031821
   0.29273162  0.74894502  0.95031824
   0.79330306  0.75129598  0.45031307
   0.79330306  0.25129598  0.95031310
   0.29330309  0.24870401  0.54968690
   0.29330309  0.74870402  0.04968692
   0.79273159  0.75105498  0.54968176
   0.79273159  0.25105498  0.04968178
   0.32304620  0.16889594  0.50007790
   0.82304620  0.83110407  0.49992210
   0.32304620  0.66889593  0.00007790
   0.82304620  0.33110407 -0.00007790
   0.60063518  0.55062395  0.05311837
   0.10063518  0.44937602  0.94688164
   0.10044711  0.45003524  0.05310752
   0.60044711  0.54996473  0.94689249
   0.60063518  0.05062396  0.55311836
   0.10063518  0.94937605  0.44688162
   0.10044711  0.95003527  0.55310751
   0.60044711  0.04996474  0.44689246
   0.31724089  0.31929293  0.40526924
   0.81724089  0.68070707  0.59473073
   0.81601477  0.68214540  0.40474205
   0.31601477  0.31785460  0.59525792
   0.31724089  0.81929293  0.90526927
   0.81724089  0.18070706  0.09473076
   0.81601477  0.18214538  0.90474208
   0.31601477  0.81785460  0.09525795
   0.52925558  0.47513127  0.13732556
   0.02925557  0.52486870  0.86267444
   0.03076189  0.52593358  0.13733985
   0.53076190  0.47406639  0.86266015
   0.52925558  0.97513130  0.63732556
   0.02925557  0.02486871  0.36267441
   0.03076189  0.02593359  0.63733985
   0.53076190  0.97406642  0.36266012
   0.30118225  0.18018872  0.30263359
   0.80118228  0.81981127  0.69736641
   0.78978120  0.80978060  0.30440245
   0.28978117  0.19021938  0.69559755
   0.30118225  0.68018873  0.80263359
   0.80118228  0.31981130  0.19736640
   0.78978120  0.30978063  0.80440245
   0.28978117  0.69021940  0.19559753