BiTiFeO                                 
           1
     5.498979   -0.000965    0.004836
    -0.000964    5.482524   -0.000837
     0.035808   -0.006200   40.442977
   Bi   Ti   O    Fe
  20  12  60   4
Direct configuration=     1
   0.24484409  0.23757862  0.00000000
   0.74484408  0.76242137  0.00000000
   0.24484409  0.73757863  0.50000000
   0.74484408  0.26242140  0.50000000
   0.25198972  0.24830766  0.10393570
   0.75198966  0.75169236  0.89606434
   0.75198966  0.75169236  0.10393570
   0.25198972  0.24830766  0.89606434
   0.25198972  0.74830764  0.60393566
   0.75198966  0.25169236  0.39606428
   0.75198966  0.25169236  0.60393566
   0.25198972  0.74830764  0.39606428
   0.22412699  0.27433315  0.21935007
   0.72412699  0.72566688  0.78064990
   0.72412699  0.72566688  0.21935007
   0.22412699  0.27433315  0.78064990
   0.22412699  0.77433312  0.71935010
   0.72412699  0.22566684  0.28064990
   0.72412699  0.22566684  0.71935010
   0.22412699  0.77433312  0.28064990
   0.79682386  0.74890918  0.34797305
   0.79682386  0.24890919  0.84797305
   0.29682383  0.25109082  0.65202695
   0.29682383  0.75109082  0.15202695
   0.79682386  0.74890918  0.65202695
   0.79682386  0.24890919  0.15202695
   0.29357013  0.24638395  0.45064172
   0.29357013  0.74638396  0.95064175
   0.29357013  0.24638395  0.54935825
   0.29357013  0.74638396  0.04935827
   0.79357010  0.75361604  0.54935825
   0.79357010  0.25361604  0.04935827
   0.31881350  0.15770908  0.50000000
   0.81881350  0.84229094  0.50000000
   0.31881350  0.65770906  0.00000000
   0.81881350  0.34229094  0.00000000
   0.60082728  0.55501008  0.05564614
   0.10082728  0.44498989  0.94435388
   0.10082728  0.44498989  0.05564614
   0.60082728  0.55501008  0.94435388
   0.60082728  0.05501010  0.55564612
   0.10082728  0.94498992  0.44435385
   0.10082728  0.94498992  0.55564612
   0.60082728  0.05501010  0.44435385
   0.32772058  0.32494432  0.40226784
   0.82772058  0.67505568  0.59773213
   0.82772058  0.67505568  0.40226784
   0.32772058  0.32494432  0.59773213
   0.32772058  0.82494432  0.90226787
   0.82772058  0.17505567  0.09773216
   0.82772058  0.17505567  0.90226787
   0.32772058  0.82494432  0.09773216
   0.53021055  0.47461614  0.13739407
   0.03021055  0.52538383  0.86260593
   0.03021055  0.52538383  0.13739407
   0.53021055  0.47461614  0.86260593
   0.53021055  0.97461617  0.63739407
   0.03021055  0.02538385  0.36260590
   0.03021055  0.02538385  0.63739407
   0.53021055  0.97461617  0.36260590
   0.29461476  0.18484382  0.30443299
   0.79461479  0.81515616  0.69556701
   0.79461479  0.81515616  0.30443299
   0.29461476  0.18484382  0.69556701
   0.29461476  0.68484384  0.80443299
   0.79461479  0.31515619  0.19556700
   0.79461479  0.31515619  0.80443299
   0.29461476  0.68484384  0.19556700
   0.49390233  0.49391797  0.25123006
   0.99390238  0.50608200  0.74876994
   0.99390238  0.50608200  0.25123006
   0.49390233  0.49391797  0.74876994
   0.49390233  0.99391800  0.75123006
   0.99390238  0.00608201  0.24876994
   0.99390238  0.00608201  0.75123006
   0.49390233  0.99391800  0.24876994
   0.00880992  0.95784479  0.03788698
   0.50880992  0.04215522  0.96211302
   0.50880992  0.04215522  0.03788698
   0.00880992  0.95784479  0.96211302
   0.00880992  0.45784476  0.53788698
   0.50880992  0.54215521  0.46211302
   0.50880992  0.54215521  0.53788698
   0.00880992  0.45784476  0.46211302
   0.10677507  0.05355787  0.15066576
   0.60677504  0.94644213  0.84933424
   0.60677504  0.94644213  0.15066576
   0.10677507  0.05355787  0.84933424
   0.10677507  0.55355787  0.65066576
   0.60677504  0.44644213  0.34933424
   0.60677504  0.44644213  0.65066576
   0.10677507  0.55355787  0.34933424
   0.29682383  0.25109082  0.34797305
   0.29682383  0.75109082  0.84797305
   0.79357010  0.75361604  0.45064172
   0.79357010  0.25361604  0.95064175
BiTiFeO                                 
           1
     5.515362   -0.000636    0.001834
    -0.000634    5.501530   -0.001329
     0.013483   -0.009792   40.846584
   Bi   Ti   O    Fe
  20  12  60   4
Direct configuration=     2
   0.24480479  0.23787720 -0.00221901
   0.74659378  0.76151354 -0.00220338
   0.24480479  0.73787721  0.49778099
   0.74659378  0.26151357  0.49779662
   0.25270731  0.24875555  0.10515034
   0.75349503  0.75114917  0.89379342
   0.75276450  0.75128951  0.10515515
   0.25126099  0.24968626  0.89377051
   0.25270731  0.74875553  0.60515030
   0.75349503  0.25114917  0.39379336
   0.75276450  0.25128951  0.60515511
   0.25126099  0.74968624  0.39377045
   0.22521635  0.27211272  0.22069732
   0.72132026  0.72417725  0.78212234
   0.72550383  0.72787323  0.22062921
   0.22429569  0.27803374  0.78215340
   0.22521635  0.77211269  0.72069735
   0.72132026  0.22417720  0.28212234
   0.72550383  0.22787319  0.72062924
   0.22429569  0.77803371  0.28215340
   0.79807323  0.74698645  0.34828299
   0.79807323  0.24698646  0.84828299
   0.29708189  0.24999771  0.65374019
   0.29708189  0.74999771  0.15374019
   0.79709041  0.74996829  0.65372031
   0.79709041  0.24996831  0.15372031
   0.29426332  0.24354618  0.44783418
   0.29426332  0.74354620  0.94783421
   0.29219360  0.24636155  0.54920803
   0.29219360  0.74636156  0.04920806
   0.79205336  0.75435766  0.54880984
   0.79205336  0.25435766  0.04880986
   0.31869104  0.15981253  0.50139827
   0.81919074  0.84043929  0.50154572
   0.31869104  0.65981252  0.00139827
   0.81919074  0.34043929  0.00154572
   0.59970929  0.55115185  0.05551525
   0.10281086  0.45040884  0.94582026
   0.10037376  0.44935091  0.05552721
   0.59828424  0.55543547  0.94588051
   0.59970929  0.05115186  0.55551523
   0.10281086  0.95040887  0.44582023
   0.10037376  0.94935094  0.55552720
   0.59828424  0.05543549  0.44588048
   0.32494195  0.32183784  0.40466126
   0.82639611  0.67662779  0.59652936
   0.82684725  0.67617552  0.40386254
   0.32623447  0.32324371  0.59645943
   0.32494195  0.82183784  0.90466129
   0.82639611  0.17662778  0.09652939
   0.82684725  0.17617551  0.90386257
   0.32623447  0.82324371  0.09645946
   0.52940607  0.47478575  0.13682356
   0.02953409  0.52573723  0.86334900
   0.02944413  0.52526034  0.13682139
   0.53007834  0.47395066  0.86324303
   0.52940607  0.97478578  0.63682356
   0.02953409  0.02573725  0.36334897
   0.02944413  0.02526036  0.63682139
   0.53007834  0.97395069  0.36324300
   0.29635314  0.18255150  0.30377169
   0.79379324  0.81244365  0.69427053
   0.79501544  0.81655800  0.30361368
   0.29374616  0.18751631  0.69426571
   0.29635314  0.68255151  0.80377169
   0.79379324  0.31244368  0.19427051
   0.79501544  0.31655803  0.80361368
   0.29374616  0.68751633  0.19426569
   0.49398094  0.49430607  0.25043804
   0.99414476  0.50596218  0.74792498
   0.99311047  0.50581740  0.25038004
   0.49437790  0.49339072  0.74795350
   0.49398094  0.99430610  0.75043804
   0.99414476  0.00596219  0.24792498
   0.99311047  0.00581742  0.75038004
   0.49437790  0.99339075  0.24795350
   0.01149344  0.95900404  0.03879430
   0.50771475  0.03952791  0.96292535
   0.51058702  0.04043762  0.03881634
   0.01065217  0.95747158  0.96287235
   0.01149344  0.45900401  0.53879430
   0.50771475  0.53952789  0.46292535
   0.51058702  0.54043760  0.53881634
   0.01065217  0.45747155  0.46287235
   0.10736106  0.05480672  0.15001833
   0.60874833  0.94569202  0.84989790
   0.60730984  0.94515067  0.15001410
   0.10792018  0.05638731  0.84992736
   0.10736106  0.55480672  0.65001833
   0.60874833  0.44569202  0.34989790
   0.60730984  0.44515067  0.65001410
   0.10792018  0.55638731  0.34992736
   0.29577337  0.25056903  0.34741063
   0.29577337  0.75056903  0.84741063
   0.79205696  0.75450340  0.44862347
   0.79205696  0.25450340  0.94862350
BiTiFeO                                 
           1
     5.516631   -0.000410   -0.002771
    -0.000407    5.503431    0.000401
    -0.020622    0.003054   40.852544
   Bi   Ti   O    Fe
  20  12  60   4
Direct configuration=     3
   0.24485196  0.23819235 -0.00211477
   0.74644575  0.76118520 -0.00210801
   0.24485196  0.73819236  0.49788523
   0.74644575  0.26118523  0.49789199
   0.25291782  0.24860738  0.10489417
   0.75431679  0.75075763  0.89404679
   0.75310552  0.75148047  0.10490123
   0.25182415  0.25020669  0.89403765
   0.25291782  0.74860737  0.60489413
   0.75431679  0.25075763  0.39404673
   0.75310552  0.25148047  0.60490118
   0.25182415  0.75020668  0.39403759
   0.22607718  0.27149891  0.22049173
   0.72054759  0.72434642  0.78210976
   0.72667156  0.72851300  0.22039507
   0.22411790  0.27853184  0.78213822
   0.22607718  0.77149888  0.72049176
   0.72054759  0.22434637  0.28210976
   0.72667156  0.22851295  0.72039510
   0.22411790  0.77853181  0.28213822
   0.79759658  0.74770467  0.34824448
   0.79759658  0.24770469  0.84824448
   0.29710215  0.25176041  0.65210122
   0.29710215  0.75176041  0.15210122
   0.79711134  0.74821396  0.65207551
   0.79711134  0.24821397  0.15207551
   0.29347636  0.24397084  0.44895667
   0.29347636  0.74397086  0.94895670
   0.29206957  0.24620137  0.54925009
   0.29206957  0.74620139  0.04925012
   0.79181292  0.75435188  0.54897188
   0.79181292  0.25435188  0.04897190
   0.31884751  0.16026379  0.50116768
   0.81931964  0.83996939  0.50128439
   0.31884751  0.66026378  0.00116768
   0.81931964  0.33996939  0.00128439
   0.59975427  0.55077140  0.05553310
   0.10220064  0.44961334  0.94579006
   0.10025488  0.44960686  0.05554952
   0.59928021  0.55505705  0.94588809
   0.59975427  0.05077142  0.55553308
   0.10220064  0.94961337  0.44579003
   0.10025488  0.94960689  0.55554950
   0.59928021  0.05505707  0.44588806
   0.32456592  0.32279720  0.40387781
   0.82608450  0.67676870  0.59652838
   0.82672860  0.67601765  0.40350476
   0.32589174  0.32313985  0.59650559
   0.32456592  0.82279720  0.90387784
   0.82608450  0.17676869  0.09652841
   0.82672860  0.17601764  0.90350479
   0.32589174  0.82313985  0.09650562
   0.52946169  0.47475458  0.13701982
   0.02956160  0.52575767  0.86326989
   0.02953196  0.52533189  0.13701419
   0.53036890  0.47383543  0.86313815
   0.52946169  0.97475461  0.63701982
   0.02956160  0.02575769  0.36326986
   0.02953196  0.02533190  0.63701419
   0.53036890  0.97383546  0.36313812
   0.29671522  0.18202433  0.30356004
   0.79330713  0.81434206  0.69574353
   0.79504008  0.81624458  0.30368608
   0.29323916  0.18557461  0.69574875
   0.29671522  0.68202434  0.80356004
   0.79330713  0.31434209  0.19574351
   0.79504008  0.31624461  0.80368608
   0.29323916  0.68557463  0.19574873
   0.49395088  0.49387232  0.25063460
   0.99395959  0.50534068  0.74807390
   0.99300127  0.50630836  0.25056907
   0.49428737  0.49384303  0.74809657
   0.49395088  0.99387235  0.75063460
   0.99395959  0.00534070  0.24807390
   0.99300127  0.00630837  0.75056907
   0.49428737  0.99384306  0.24809657
   0.01151577  0.95921172  0.03881005
   0.50875692  0.03900769  0.96271091
   0.51077919  0.04047174  0.03882800
   0.01160328  0.95810957  0.96263555
   0.01151577  0.45921169  0.53881005
   0.50875692  0.53900767  0.46271091
   0.51077919  0.54047173  0.53882800
   0.01160328  0.45810954  0.46263555
   0.10708103  0.05448930  0.15018529
   0.60827903  0.94608397  0.84982765
   0.60699571  0.94544474  0.15017909
   0.10770093  0.05592798  0.84983800
   0.10708103  0.55448930  0.65018529
   0.60827903  0.44608397  0.34982765
   0.60699571  0.44544474  0.65017909
   0.10770093  0.55592798  0.34983800
   0.29549839  0.25027209  0.34737959
   0.29549839  0.75027209  0.84737959
   0.79119170  0.75422326  0.44903013
   0.79119170  0.25422326  0.94903016
BiTiFeO                                 
           1
     5.508677   -0.000846   -0.001165
    -0.000842    5.495469    0.000447
    -0.008635    0.003376   40.894563
   Bi   Ti   O    Fe
  20  12  60   4
Direct configuration=     4
   0.24463269  0.23877262 -0.00233976
   0.74648507  0.76034192 -0.00235994
   0.24463269  0.73877263  0.49766024
   0.74648507  0.26034195  0.49764006
   0.25324916  0.24889444  0.10450098
   0.75492206  0.75040534  0.89400133
   0.75368024  0.75127796  0.10451796
   0.25246874  0.25072573  0.89401934
   0.25324916  0.74889443  0.60450093
   0.75492206  0.25040534  0.39400127
   0.75368024  0.25127796  0.60451792
   0.25246874  0.75072571  0.39401928
   0.22732654  0.27145194  0.22040499
   0.71791660  0.72487134  0.78174139
   0.72888539  0.72864257  0.22023457
   0.22342799  0.28013135  0.78176675
   0.22732654  0.77145191  0.72040502
   0.71791660  0.22487130  0.28174139
   0.72888539  0.22864252  0.72023460
   0.22342799  0.78013132  0.28176675
   0.79685892  0.74928893  0.34756926
   0.79685892  0.24928894  0.84756926
   0.29665849  0.24905917  0.65314186
   0.29665849  0.74905917  0.15314186
   0.79664138  0.75090260  0.65308327
   0.79664138  0.25090261  0.15308327
   0.29318031  0.24573489  0.44969574
   0.29318031  0.74573491  0.94969577
   0.29167270  0.24604054  0.54906191
   0.29167270  0.74604055  0.04906193
   0.79125001  0.75444024  0.54886778
   0.79125001  0.25444024  0.04886781
   0.31927996  0.16190890  0.50097051
   0.81985207  0.83829421  0.50114026
   0.31927996  0.66190888  0.00097051
   0.81985207  0.33829421  0.00114026
   0.59950220  0.54956081  0.05563390
   0.10140247  0.44850960  0.94616195
   0.09991323  0.45082472  0.05566166
   0.60091612  0.55489501  0.94634711
   0.59950220  0.04956083  0.55563389
   0.10140247  0.94850963  0.44616192
   0.09991323  0.95082475  0.55566164
   0.60091612  0.05489502  0.44634709
   0.32278185  0.32251184  0.40373216
   0.82519620  0.67722255  0.59649794
   0.82613446  0.67645693  0.40334435
   0.32489377  0.32270105  0.59653030
   0.32278185  0.82251184  0.90373219
   0.82519620  0.17722254  0.09649797
   0.82613446  0.17645691  0.90334438
   0.32489377  0.82270105  0.09653033
   0.52942112  0.47473105  0.13704012
   0.02918756  0.52573960  0.86324086
   0.02949683  0.52541544  0.13702851
   0.53107012  0.47336957  0.86305935
   0.52942112  0.97473108  0.63704012
   0.02918756  0.02573962  0.36324083
   0.02949683  0.02541545  0.63702851
   0.53107012  0.97336960  0.36305932
   0.29801885  0.18101262  0.30348053
   0.79259782  0.81205834  0.69482382
   0.79521286  0.81483545  0.30440139
   0.29246117  0.18773377  0.69484147
   0.29801885  0.68101264  0.80348053
   0.79259782  0.31205837  0.19482381
   0.79521286  0.31483548  0.80440139
   0.29246117  0.68773378  0.19484146
   0.49452324  0.49310914  0.25110962
   0.99378769  0.50395381  0.74856802
   0.99322457  0.50727796  0.25102353
   0.49449595  0.49462343  0.74856526
   0.49452324  0.99310917  0.75110962
   0.99378769  0.00395383  0.24856802
   0.99322457  0.00727798  0.75102353
   0.49449595  0.99462346  0.24856526
   0.01231318  0.95977296  0.03901546
   0.51098293  0.03741263  0.96249995
   0.51160814  0.04020634  0.03903030
   0.01374956  0.95967960  0.96237886
   0.01231318  0.45977293  0.53901546
   0.51098293  0.53741261  0.46249995
   0.51160814  0.54020632  0.53903030
   0.01374956  0.45967957  0.46237886
   0.10671184  0.05426116  0.15000712
   0.60813581  0.94652563  0.84997843
   0.60662267  0.94568317  0.14999675
   0.10747576  0.05613076  0.84995865
   0.10671184  0.55426116  0.65000712
   0.60813581  0.44652563  0.34997843
   0.60662267  0.44568317  0.64999675
   0.10747576  0.55613076  0.34995865
   0.29497027  0.24924341  0.34680068
   0.29497027  0.74924341  0.84680068
   0.78960330  0.75335686  0.44922367
   0.78960330  0.25335686  0.94922370
BiTiFeO                                 
           1
     5.512206   -0.001215    0.000652
    -0.001210    5.500041    0.001017
     0.004863    0.007613   40.976407
   Bi   Ti   O    Fe
  20  12  60   4
Direct configuration=     5
   0.24439931  0.23902864 -0.00246624
   0.74679219  0.75996287 -0.00248428
   0.24439931  0.73902866  0.49753376
   0.74679219  0.25996290  0.49751572
   0.25302928  0.24851864  0.10448590
   0.75471252  0.75073143  0.89393187
   0.75344867  0.75167572  0.10450673
   0.25227854  0.25044940  0.89395847
   0.25302928  0.74851863  0.60448586
   0.75471252  0.25073143  0.39393181
   0.75344867  0.25167572  0.60450669
   0.25227854  0.75044939  0.39395841
   0.22734974  0.27157380  0.22056114
   0.71721961  0.72532481  0.78184931
   0.72933832  0.72860953  0.22036277
   0.22351597  0.28042723  0.78187463
   0.22734974  0.77157377  0.72056117
   0.71721961  0.22532476  0.28184931
   0.72933832  0.22860949  0.72036280
   0.22351597  0.78042720  0.28187463
   0.79699221  0.74862126  0.34796509
   0.79699221  0.24862128  0.84796509
   0.29683046  0.24988202  0.65269065
   0.29683046  0.74988202  0.15269065
   0.79677119  0.75008696  0.65264288
   0.79677119  0.25008697  0.15264288
   0.29333232  0.24557966  0.44937536
   0.29333232  0.74557968  0.94937539
   0.29167795  0.24647170  0.54914505
   0.29167795  0.74647172  0.04914507
   0.79122487  0.75412003  0.54888517
   0.79122487  0.25412003  0.04888520
   0.31943343  0.16244854  0.50095671
   0.82010275  0.83776799  0.50115935
   0.31943343  0.66244852  0.00095671
   0.82010275  0.33776799  0.00115935
   0.59918355  0.54925751  0.05562355
   0.10174717  0.44868796  0.94636708
   0.09970380  0.45126899  0.05565165
   0.60097270  0.55525621  0.94656531
   0.59918355  0.04925753  0.55562353
   0.10174717  0.94868799  0.44636705
   0.09970380  0.95126902  0.55565164
   0.60097270  0.05525622  0.44656528
   0.32220887  0.32185445  0.40405549
   0.82501376  0.67737714  0.59641794
   0.82595055  0.67671418  0.40344819
   0.32465665  0.32251860  0.59642933
   0.32220887  0.82185445  0.90405552
   0.82501376  0.17737712  0.09641797
   0.82595055  0.17671417  0.90344822
   0.32465665  0.82251860  0.09642936
   0.52935564  0.47477336  0.13707456
   0.02917593  0.52589032  0.86317705
   0.02940743  0.52536681  0.13706228
   0.53100682  0.47343421  0.86299777
   0.52935564  0.97477339  0.63707456
   0.02917593  0.02589034  0.36317702
   0.02940743  0.02536682  0.63706228
   0.53100682  0.97343424  0.36299774
   0.29856097  0.18039721  0.30327795
   0.79230176  0.81235902  0.69518130
   0.79519467  0.81524141  0.30408178
   0.29210849  0.18734001  0.69521703
   0.29856097  0.68039723  0.80327795
   0.79230176  0.31235905  0.19518128
   0.79519467  0.31524144  0.80408178
   0.29210849  0.68734003  0.19521702
   0.49474508  0.49340098  0.25106756
   0.99367403  0.50399958  0.74853873
   0.99326148  0.50710114  0.25097960
   0.49467691  0.49426217  0.74851253
   0.49474508  0.99340101  0.75106756
   0.99367403  0.00399960  0.24853873
   0.99326148  0.00710115  0.75097960
   0.49467691  0.99426220  0.24851253
   0.01270293  0.95995526  0.03905995
   0.51145726  0.03691052  0.96251582
   0.51183068  0.03995489  0.03907869
   0.01419645  0.96010969  0.96238985
   0.01270293  0.45995523  0.53905995
   0.51145726  0.53691051  0.46251582
   0.51183068  0.53995488  0.53907869
   0.01419645  0.46010966  0.46238985
   0.10665085  0.05419965  0.14997572
   0.60799575  0.94640576  0.84998681
   0.60659632  0.94575540  0.14996132
   0.10758667  0.05617296  0.84996433
   0.10665085  0.55419965  0.64997572
   0.60799575  0.44640576  0.34998681
   0.60659632  0.44575540  0.64996132
   0.10758667  0.55617296  0.34996433
   0.29486070  0.24946828  0.34686465
   0.29486070  0.74946828  0.84686465
   0.78956665  0.75328594  0.44907556
   0.78956665  0.25328594  0.94907559
BiTiFeO                                 
           1
     5.501472   -0.001546    0.001418
    -0.001541    5.489195    0.000598
     0.010523    0.004466   40.988797
   Bi   Ti   O    Fe
  20  12  60   4
Direct configuration=     6
   0.24404271  0.24002904 -0.00264109
   0.74715961  0.75878321 -0.00265720
   0.24404271  0.74002905  0.49735891
   0.74715961  0.25878324  0.49734280
   0.25293552  0.24832303  0.10431488
   0.75475818  0.75081827  0.89392198
   0.75347171  0.75195979  0.10434279
   0.25234345  0.25042627  0.89397455
   0.25293552  0.74832301  0.60431484
   0.75475818  0.25081827  0.39392192
   0.75347171  0.25195979  0.60434275
   0.25234345  0.75042626  0.39397449
   0.22766101  0.27188776  0.22065837
   0.71597643  0.72625601  0.78192453
   0.73084753  0.72858206  0.22041421
   0.22333268  0.28073405  0.78193421
   0.22766101  0.77188773  0.72065840
   0.71597643  0.22625597  0.28192453
   0.73084753  0.22858202  0.72041424
   0.22333268  0.78073402  0.28193421
   0.79693690  0.74937132  0.34759041
   0.79693690  0.24937133  0.84759041
   0.29683132  0.24958809  0.65278277
   0.29683132  0.74958809  0.15278277
   0.79676143  0.75032073  0.65268261
   0.79676143  0.25032074  0.15268261
   0.29321244  0.24557243  0.44964495
   0.29321244  0.74557245  0.94964498
   0.29189163  0.24700483  0.54910086
   0.29189163  0.74700485  0.04910088
   0.79117036  0.75361229  0.54886711
   0.79117036  0.25361229  0.04886713
   0.31985632  0.16392148  0.50087313
   0.82070202  0.83628079  0.50109421
   0.31985632  0.66392146  0.00087313
   0.82070202  0.33628079  0.00109421
   0.59848896  0.54848010  0.05562516
   0.10201539  0.44803003  0.94673143
   0.09894992  0.45210809  0.05565669
   0.60213997  0.55566524  0.94697424
   0.59848896  0.04848012  0.55562515
   0.10201539  0.94803006  0.44673140
   0.09894992  0.95210812  0.55565668
   0.60213997  0.05566526  0.44697421
   0.32078371  0.32110497  0.40410628
   0.82440404  0.67775902  0.59634669
   0.82542888  0.67729998  0.40337476
   0.32390889  0.32214073  0.59637175
   0.32078371  0.82110497  0.90410631
   0.82440404  0.17775900  0.09634672
   0.82542888  0.17729996  0.90337479
   0.32390889  0.82214073  0.09637178
   0.52905700  0.47478019  0.13708822
   0.02929931  0.52644490  0.86308319
   0.02912276  0.52540417  0.13707047
   0.53046056  0.47375965  0.86290002
   0.52905700  0.97478022  0.63708822
   0.02929931  0.02644492  0.36308316
   0.02912276  0.02540419  0.63707047
   0.53046056  0.97375968  0.36289999
   0.29974360  0.18005818  0.30322178
   0.79161060  0.81158968  0.69516082
   0.79517057  0.81429386  0.30443396
   0.29125334  0.18794868  0.69517825
   0.29974360  0.68005819  0.80322178
   0.79161060  0.31158971  0.19516080
   0.79517057  0.31429389  0.80443396
   0.29125334  0.68794870  0.19517823
   0.49511374  0.49383053  0.25114891
   0.99346662  0.50399190  0.74865604
   0.99351405  0.50688693  0.25107742
   0.49496162  0.49387064  0.74856700
   0.49511374  0.99383056  0.75114891
   0.99346662  0.00399192  0.24865604
   0.99351405  0.00688695  0.75107742
   0.49496162  0.99387067  0.24856700
   0.01334437  0.96066590  0.03917798
   0.51321996  0.03591819  0.96239094
   0.51242393  0.03942839  0.03920353
   0.01542315  0.96151887  0.96223940
   0.01334437  0.46066587  0.53917798
   0.51321996  0.53591818  0.46239094
   0.51242393  0.53942837  0.53920353
   0.01542315  0.46151884  0.46223940
   0.10645733  0.05401096  0.14981329
   0.60708791  0.94600858  0.85011136
   0.60639866  0.94587716  0.14978945
   0.10792795  0.05575708  0.85006646
   0.10645733  0.55401096  0.64981329
   0.60708791  0.44600858  0.35011136
   0.60639866  0.44587716  0.64978945
   0.10792795  0.55575708  0.35006646
   0.29456660  0.24897949  0.34648544
   0.29456660  0.74897949  0.84648544
   0.78916518  0.75291633  0.44912573
   0.78916518  0.25291633  0.94912576
BiTiFeO                                 
           1
     5.498156   -0.002055    0.005302
    -0.002048    5.486532    0.001520
     0.039357    0.011313   41.143162
   Bi   Ti   O    Fe
  20  12  60   4
Direct configuration=     7
   0.24377899  0.24063969 -0.00277208
   0.74748746  0.75799198 -0.00278912
   0.24377899  0.74063970  0.49722792
   0.74748746  0.25799201  0.49721088
   0.25268726  0.24827299  0.10421054
   0.75428214  0.75118909  0.89385990
   0.75324837  0.75205564  0.10424630
   0.25193592  0.25004793  0.89392821
   0.25268726  0.74827298  0.60421049
   0.75428214  0.25118909  0.39385984
   0.75324837  0.25205564  0.60424626
   0.25193592  0.75004791  0.39392815
   0.22781404  0.27210295  0.22072700
   0.71483950  0.72688800  0.78191176
   0.73178514  0.72858540  0.22045461
   0.22343699  0.28109625  0.78190951
   0.22781404  0.77210292  0.72072703
   0.71483950  0.22688796  0.28191176
   0.73178514  0.22858535  0.72045464
   0.22343699  0.78109622  0.28190951
   0.79687117  0.74874559  0.34804642
   0.79687117  0.24874561  0.84804642
   0.29680144  0.24952320  0.65268000
   0.29680144  0.74952320  0.15268000
   0.79669842  0.75042791  0.65261954
   0.79669842  0.25042792  0.15261954
   0.29342145  0.24584792  0.44962110
   0.29342145  0.74584794  0.94962113
   0.29198201  0.24739453  0.54910954
   0.29198201  0.74739454  0.04910956
   0.79118133  0.75329739  0.54884563
   0.79118133  0.25329739  0.04884565
   0.32017788  0.16492819  0.50085612
   0.82123749  0.83530723  0.50109321
   0.32017788  0.66492817  0.00085612
   0.82123749  0.33530723  0.00109321
   0.59795591  0.54786695  0.05560648
   0.10255445  0.44766713  0.94700916
   0.09843270  0.45284103  0.05563856
   0.60290116  0.55608309  0.94726819
   0.59795591  0.04786697  0.55560647
   0.10255445  0.94766716  0.44700913
   0.09843270  0.95284106  0.55563855
   0.60290116  0.05608310  0.44726816
   0.31990326  0.32035518  0.40430702
   0.82406940  0.67791219  0.59630599
   0.82514917  0.67783516  0.40339222
   0.32348853  0.32198608  0.59631565
   0.31990326  0.82035518  0.90430705
   0.82406940  0.17791218  0.09630602
   0.82514917  0.17783514  0.90339225
   0.32348853  0.82198608  0.09631568
   0.52887857  0.47470710  0.13709598
   0.02917924  0.52662791  0.86297024
   0.02891237  0.52545846  0.13707381
   0.53024512  0.47377892  0.86279666
   0.52887857  0.97470713  0.63709598
   0.02917924  0.02662792  0.36297021
   0.02891237  0.02545848  0.63707381
   0.53024512  0.97377895  0.36279663
   0.30068893  0.17951058  0.30298136
   0.79119914  0.81110517  0.69518617
   0.79508669  0.81440216  0.30413772
   0.29062466  0.18818916  0.69525533
   0.30068893  0.67951060  0.80298136
   0.79119914  0.31110520  0.19518615
   0.79508669  0.31440219  0.80413772
   0.29062466  0.68818918  0.19525532
   0.49546383  0.49412435  0.25122477
   0.99336457  0.50388833  0.74878250
   0.99363882  0.50682479  0.25116747
   0.49525661  0.49360322  0.74864155
   0.49546383  0.99412438  0.75122477
   0.99336457  0.00388834  0.24878250
   0.99363882  0.00682480  0.75116747
   0.49525661  0.99360325  0.24864155
   0.01392699  0.96115031  0.03924726
   0.51420501  0.03522645  0.96234240
   0.51289651  0.03900825  0.03928230
   0.01630541  0.96226817  0.96217787
   0.01392699  0.46115028  0.53924726
   0.51420501  0.53522643  0.46234240
   0.51289651  0.53900824  0.53928230
   0.01630541  0.46226814  0.46217787
   0.10626004  0.05385546  0.14969414
   0.60680172  0.94612566  0.85017012
   0.60625520  0.94602485  0.14966315
   0.10791340  0.05569327  0.85010726
   0.10626004  0.55385546  0.64969414
   0.60680172  0.44612566  0.35017012
   0.60625520  0.44602485  0.64966315
   0.10791340  0.55569327  0.35010726
   0.29449055  0.24900952  0.34651368
   0.29449055  0.74900952  0.84651368
   0.78908487  0.75252910  0.44908672
   0.78908487  0.25252910  0.94908675
BiTiFeO                                 
           1
     5.502011   -0.001676    0.003672
    -0.001670    5.489613    0.000823
     0.027320    0.006135   41.050817
   Bi   Ti   O    Fe
  20  12  60   4
Direct configuration=     8
   0.24325138  0.24290558 -0.00304994
   0.74883492  0.75518485 -0.00306561
   0.24325138  0.74290560  0.49695006
   0.74883492  0.25518488  0.49693439
   0.25208332  0.24815884  0.10386779
   0.75295145  0.75167726  0.89376168
   0.75289508  0.75233473  0.10392858
   0.25136427  0.24918882  0.89388662
   0.25208332  0.74815883  0.60386774
   0.75295145  0.25167726  0.39376162
   0.75289508  0.25233473  0.60392853
   0.25136427  0.74918881  0.39388656
   0.22857640  0.27244933  0.22092008
   0.71234535  0.72861721  0.78207983
   0.73522710  0.72913950  0.22059484
   0.22350917  0.28148539  0.78200783
   0.22857640  0.77244930  0.72092011
   0.71234535  0.22861716  0.28207983
   0.73522710  0.22913946  0.72059487
   0.22350917  0.78148536  0.28200783
   0.79645705  0.74952819  0.34786382
   0.79645705  0.24952820  0.84786382
   0.29660105  0.24956564  0.65230557
   0.29660105  0.74956564  0.15230557
   0.79649339  0.75024012  0.65213200
   0.79649339  0.25024013  0.15213200
   0.29406151  0.24661141  0.44984019
   0.29406151  0.74661143  0.94984022
   0.29245246  0.24882712  0.54923199
   0.29245246  0.74882713  0.04923201
   0.79136934  0.75200685  0.54894146
   0.79136934  0.25200685  0.04894149
   0.32120227  0.16846840  0.50070643
   0.82296820  0.83190841  0.50095692
   0.32120227  0.66846838  0.00070643
   0.82296820  0.33190841  0.00095692
   0.59594066  0.54579100  0.05547305
   0.10434501  0.44592376  0.94789000
   0.09637631  0.45527698  0.05551201
   0.60607200  0.55718019  0.94818193
   0.59594066  0.04579101  0.55547304
   0.10434501  0.94592379  0.44788997
   0.09637631  0.95527701  0.55551200
   0.60607200  0.05718021  0.44818190
   0.31693987  0.31786293  0.40472701
   0.82279781  0.67860063  0.59612115
   0.82399592  0.68004395  0.40329651
   0.32192481  0.32130639  0.59612263
   0.31693987  0.81786293  0.90472704
   0.82279781  0.17860061  0.09612118
   0.82399592  0.18004393  0.90329654
   0.32192481  0.82130639  0.09612266
   0.52794724  0.47443858  0.13709916
   0.02873291  0.52751326  0.86268054
   0.02796626  0.52576605  0.13705922
   0.52884468  0.47408946  0.86254503
   0.52794724  0.97443861  0.63709916
   0.02873291  0.02751328  0.36268051
   0.02796626  0.02576607  0.63705922
   0.52884468  0.97408949  0.36254500
   0.30361532  0.17929808  0.30267056
   0.78962371  0.80965271  0.69560133
   0.79481559  0.81246426  0.30449084
   0.28821943  0.18904062  0.69562629
   0.30361532  0.67929810  0.80267056
   0.78962371  0.30965274  0.19560132
   0.79481559  0.31246429  0.80449084
   0.28821943  0.68904064  0.19562627