BiTiFeO                                 
           1
     5.505427   -0.000475    0.000000
    -0.000474    5.490924    0.000000
     0.000000    0.000000   40.358637
   Bi   Ti   O    Fe
  20  12  60   4
Direct configuration=     1
   0.24484409  0.23757862  0.00000000
   0.74484408  0.76242137  0.00000000
   0.24484409  0.73757863  0.50000000
   0.74484408  0.26242140  0.50000000
   0.25198972  0.24830766  0.10393570
   0.75198966  0.75169236  0.89606434
   0.75198966  0.75169236  0.10393570
   0.25198972  0.24830766  0.89606434
   0.25198972  0.74830764  0.60393566
   0.75198966  0.25169236  0.39606428
   0.75198966  0.25169236  0.60393566
   0.25198972  0.74830764  0.39606428
   0.22412699  0.27433315  0.21935007
   0.72412699  0.72566688  0.78064990
   0.72412699  0.72566688  0.21935007
   0.22412699  0.27433315  0.78064990
   0.22412699  0.77433312  0.71935010
   0.72412699  0.22566684  0.28064990
   0.72412699  0.22566684  0.71935010
   0.22412699  0.77433312  0.28064990
   0.79682386  0.74890918  0.34797305
   0.79682386  0.24890919  0.84797305
   0.79682386  0.74890918  0.65202695
   0.79682386  0.24890919  0.15202695
   0.29357013  0.24638395  0.45064172
   0.29357013  0.74638396  0.95064175
   0.79357010  0.75361604  0.45064172
   0.79357010  0.25361604  0.95064175
   0.29357013  0.24638395  0.54935825
   0.29357013  0.74638396  0.04935827
   0.79357010  0.75361604  0.54935825
   0.79357010  0.25361604  0.04935827
   0.31881350  0.15770908  0.50000000
   0.81881350  0.84229094  0.50000000
   0.31881350  0.65770906  0.00000000
   0.81881350  0.34229094  0.00000000
   0.60082728  0.55501008  0.05564614
   0.10082728  0.44498989  0.94435388
   0.10082728  0.44498989  0.05564614
   0.60082728  0.55501008  0.94435388
   0.60082728  0.05501010  0.55564612
   0.10082728  0.94498992  0.44435385
   0.10082728  0.94498992  0.55564612
   0.60082728  0.05501010  0.44435385
   0.32772058  0.32494432  0.40226784
   0.82772058  0.67505568  0.59773213
   0.82772058  0.67505568  0.40226784
   0.32772058  0.32494432  0.59773213
   0.32772058  0.82494432  0.90226787
   0.82772058  0.17505567  0.09773216
   0.82772058  0.17505567  0.90226787
   0.32772058  0.82494432  0.09773216
   0.53021055  0.47461614  0.13739407
   0.03021055  0.52538383  0.86260593
   0.03021055  0.52538383  0.13739407
   0.53021055  0.47461614  0.86260593
   0.53021055  0.97461617  0.63739407
   0.03021055  0.02538385  0.36260590
   0.03021055  0.02538385  0.63739407
   0.53021055  0.97461617  0.36260590
   0.29461476  0.18484382  0.30443299
   0.79461479  0.81515616  0.69556701
   0.79461479  0.81515616  0.30443299
   0.29461476  0.18484382  0.69556701
   0.29461476  0.68484384  0.80443299
   0.79461479  0.31515619  0.19556700
   0.79461479  0.31515619  0.80443299
   0.29461476  0.68484384  0.19556700
   0.49390233  0.49391797  0.25123006
   0.99390238  0.50608200  0.74876994
   0.99390238  0.50608200  0.25123006
   0.49390233  0.49391797  0.74876994
   0.49390233  0.99391800  0.75123006
   0.99390238  0.00608201  0.24876994
   0.99390238  0.00608201  0.75123006
   0.49390233  0.99391800  0.24876994
   0.00880992  0.95784479  0.03788698
   0.50880992  0.04215522  0.96211302
   0.50880992  0.04215522  0.03788698
   0.00880992  0.95784479  0.96211302
   0.00880992  0.45784476  0.53788698
   0.50880992  0.54215521  0.46211302
   0.50880992  0.54215521  0.53788698
   0.00880992  0.45784476  0.46211302
   0.10677507  0.05355787  0.15066576
   0.60677504  0.94644213  0.84933424
   0.60677504  0.94644213  0.15066576
   0.10677507  0.05355787  0.84933424
   0.10677507  0.55355787  0.65066576
   0.60677504  0.44644213  0.34933424
   0.60677504  0.44644213  0.65066576
   0.10677507  0.55355787  0.34933424
   0.29682383  0.25109082  0.34797305
   0.29682383  0.75109082  0.84797305
   0.29682383  0.25109082  0.65202695
   0.29682383  0.75109082  0.15202695
BiTiFeO                                 
           1
     5.521678   -0.000669    0.000000
    -0.000668    5.510328    0.000000
     0.000000    0.000000   40.902166
   Bi   Ti   O    Fe
  20  12  60   4
Direct configuration=     2
   0.24596400  0.23895694  0.00000000
   0.74582015  0.76116443  0.00000000
   0.24596400  0.73895696  0.50000000
   0.74582015  0.26116446  0.50000000
   0.25459691  0.25015232  0.10760227
   0.75379618  0.74937093  0.89243654
   0.75379618  0.74937093  0.10756350
   0.25459691  0.25015232  0.89239778
   0.25459691  0.75015231  0.60760222
   0.75379618  0.24937093  0.39243648
   0.75379618  0.24937093  0.60756346
   0.25459691  0.75015231  0.39239772
   0.22554440  0.27690110  0.21921718
   0.72170646  0.72618674  0.78084101
   0.72170646  0.72618674  0.21915896
   0.22554440  0.27690110  0.78078279
   0.22554440  0.77690107  0.71921721
   0.72170646  0.22618670  0.28084101
   0.72170646  0.22618670  0.71915899
   0.22554440  0.77690107  0.28078279
   0.79849836  0.74817278  0.34647494
   0.79849836  0.24817279  0.84647494
   0.79849836  0.74817278  0.65352506
   0.79849836  0.24817279  0.15352506
   0.29316740  0.24560512  0.44812589
   0.29316740  0.74560514  0.94812592
   0.79316865  0.75476181  0.44833727
   0.79316865  0.25476181  0.94833730
   0.29316740  0.24560512  0.55187408
   0.29316740  0.74560514  0.05187411
   0.79316865  0.75476181  0.55166270
   0.79316865  0.25476181  0.05166273
   0.31938457  0.15936415  0.50000000
   0.81910071  0.84050381  0.50000000
   0.31938457  0.65936413  0.00000000
   0.81910071  0.34050381  0.00000000
   0.59950519  0.55012761  0.05429229
   0.09880685  0.44925389  0.94572249
   0.09880685  0.44925389  0.05427753
   0.59950519  0.55012761  0.94570773
   0.59950519  0.05012762  0.55429227
   0.09880685  0.94925392  0.44572246
   0.09880685  0.94925392  0.55427751
   0.59950519  0.05012762  0.44570770
   0.32491369  0.32119996  0.40525244
   0.82447851  0.67909029  0.59482337
   0.82447851  0.67909029  0.40517660
   0.32491369  0.32119996  0.59474753
   0.32491369  0.82119996  0.90525247
   0.82447851  0.17909027  0.09482340
   0.82447851  0.17909027  0.90517663
   0.32491369  0.82119996  0.09474756
   0.52988203  0.47355286  0.13609943
   0.02817626  0.52510904  0.86394598
   0.02817626  0.52510904  0.13605402
   0.52988203  0.47355286  0.86390057
   0.52988203  0.97355289  0.63609943
   0.02817626  0.02510906  0.36394595
   0.02817626  0.02510906  0.63605402
   0.52988203  0.97355289  0.36390054
   0.29583121  0.18358996  0.30446071
   0.79417035  0.81384617  0.69507559
   0.79417035  0.81384617  0.30492441
   0.29583121  0.18358996  0.69553929
   0.29583121  0.68358998  0.80446071
   0.79417035  0.31384620  0.19507557
   0.79417035  0.31384620  0.80492441
   0.29583121  0.68358998  0.19553927
   0.49473049  0.49361859  0.25127046
   0.99316220  0.50563137  0.74877455
   0.99316220  0.50563137  0.25122545
   0.49473049  0.49361859  0.74872954
   0.49473049  0.99361862  0.75127046
   0.99316220  0.00563138  0.24877455
   0.99316220  0.00563138  0.75122545
   0.49473049  0.99361862  0.24872954
   0.00950820  0.95974077  0.03772564
   0.50996632  0.04063549  0.96230837
   0.50996632  0.04063549  0.03769163
   0.00950820  0.95974077  0.96227436
   0.00950820  0.45974074  0.53772564
   0.50996632  0.54063547  0.46230837
   0.50996632  0.54063547  0.53769163
   0.00950820  0.45974074  0.46227436
   0.10785883  0.05795128  0.14936267
   0.60997695  0.94534736  0.85058092
   0.60997695  0.94534736  0.14941908
   0.10785883  0.05795128  0.85063733
   0.10785883  0.55795128  0.64936267
   0.60997695  0.44534736  0.35058092
   0.60997695  0.44534736  0.64941908
   0.10785883  0.55795128  0.35063733
   0.29581980  0.25015981  0.34644238
   0.29581980  0.75015981  0.84644238
   0.29581980  0.25015981  0.65355762
   0.29581980  0.75015981  0.15355762
BiTiFeO                                 
           1
     5.507336   -0.001012    0.000000
    -0.001010    5.495203    0.000000
     0.000000    0.000000   40.963484
   Bi   Ti   O    Fe
  20  12  60   4
Direct configuration=     3
   0.24576850  0.23969208  0.00000000
   0.74555759  0.76047401  0.00000000
   0.24576850  0.73969210  0.50000000
   0.74555759  0.26047404  0.50000000
   0.25573010  0.25075741  0.10708651
   0.75467613  0.74882543  0.89293527
   0.75467613  0.74882543  0.10706477
   0.25573010  0.25075741  0.89291354
   0.25573010  0.75075740  0.60708646
   0.75467613  0.24882543  0.39293521
   0.75467613  0.24882543  0.60706473
   0.25573010  0.75075740  0.39291348
   0.22592063  0.27725720  0.21918973
   0.72170240  0.72681596  0.78091239
   0.72170240  0.72681596  0.21908758
   0.22592063  0.27725720  0.78081024
   0.22592063  0.77725717  0.71918976
   0.72170240  0.22681592  0.28091239
   0.72170240  0.22681592  0.71908761
   0.22592063  0.77725717  0.28081024
   0.79826003  0.74765847  0.34743006
   0.79826003  0.24765849  0.84743006
   0.79826003  0.74765847  0.65256994
   0.79826003  0.24765849  0.15256994
   0.29228565  0.24524058  0.44935457
   0.29228565  0.74524060  0.94935460
   0.79239432  0.75492370  0.44948828
   0.79239432  0.25492370  0.94948831
   0.29228565  0.24524058  0.55064540
   0.29228565  0.74524060  0.05064542
   0.79239432  0.75492370  0.55051169
   0.79239432  0.25492370  0.05051171
   0.31965775  0.16002867  0.50000000
   0.81934586  0.83982703  0.50000000
   0.31965775  0.66002865  0.00000000
   0.81934586  0.33982703  0.00000000
   0.59959320  0.55033410  0.05442926
   0.09906764  0.44921114  0.94558681
   0.09906764  0.44921114  0.05441321
   0.59959320  0.55033410  0.94557075
   0.59959320  0.05033411  0.55442925
   0.09906764  0.94921117  0.44558678
   0.09906764  0.94921117  0.55441319
   0.59959320  0.05033411  0.44557072
   0.32473478  0.32233000  0.40435577
   0.82422372  0.67807252  0.59569071
   0.82422372  0.67807252  0.40430926
   0.32473478  0.32233000  0.59564420
   0.32473478  0.82233000  0.90435580
   0.82422372  0.17807250  0.09569074
   0.82422372  0.17807250  0.90430929
   0.32473478  0.82233000  0.09564423
   0.53051228  0.47339927  0.13632849
   0.02829349  0.52489929  0.86372334
   0.02829349  0.52489929  0.13627666
   0.53051228  0.47339927  0.86367151
   0.53051228  0.97339930  0.63632849
   0.02829349  0.02489931  0.36372331
   0.02829349  0.02489931  0.63627666
   0.53051228  0.97339930  0.36367148
   0.29598972  0.18255842  0.30391330
   0.79380351  0.81467877  0.69590678
   0.79380351  0.81467877  0.30409322
   0.29598972  0.18255842  0.69608670
   0.29598972  0.68255843  0.80391330
   0.79380351  0.31467880  0.19590677
   0.79380351  0.31467880  0.80409322
   0.29598972  0.68255843  0.19608669
   0.49488762  0.49349278  0.25130708
   0.99290500  0.50553114  0.74875925
   0.99290500  0.50553114  0.25124075
   0.49488762  0.49349278  0.74869292
   0.49488762  0.99349281  0.75130708
   0.99290500  0.00553115  0.24875925
   0.99290500  0.00553115  0.75124075
   0.49488762  0.99349281  0.24869292
   0.01015769  0.95996489  0.03792809
   0.51054795  0.04033956  0.96210992
   0.51054795  0.04033956  0.03789008
   0.01015769  0.95996489  0.96207191
   0.01015769  0.45996486  0.53792809
   0.51054795  0.54033954  0.46210992
   0.51054795  0.54033954  0.53789008
   0.01015769  0.45996486  0.46207191
   0.10713838  0.05675491  0.14959880
   0.60896930  0.94641713  0.85035825
   0.60896930  0.94641713  0.14964175
   0.10713838  0.05675491  0.85040120
   0.10713838  0.55675491  0.64959880
   0.60896930  0.44641713  0.35035825
   0.60896930  0.44641713  0.64964175
   0.10713838  0.55675491  0.35040120
   0.29544153  0.25052636  0.34684225
   0.29544153  0.75052636  0.84684225
   0.29544153  0.25052636  0.65315775
   0.29544153  0.75052636  0.15315775
BiTiFeO                                 
           1
     5.510260   -0.000942    0.000000
    -0.000939    5.498571    0.000000
     0.000000    0.000000   41.016426
   Bi   Ti   O    Fe
  20  12  60   4
Direct configuration=     4
   0.24581496  0.24078783  0.00000000
   0.74543348  0.75949486  0.00000000
   0.24581496  0.74078784  0.50000000
   0.74543348  0.25949489  0.50000000
   0.25726149  0.25097987  0.10686000
   0.75500853  0.74847781  0.89314086
   0.75500853  0.74847781  0.10685919
   0.25726149  0.25097987  0.89314004
   0.25726149  0.75097986  0.60685996
   0.75500853  0.24847781  0.39314080
   0.75500853  0.24847781  0.60685914
   0.25726149  0.75097986  0.39313998
   0.22568409  0.27903940  0.21956956
   0.72153916  0.72741081  0.78061946
   0.72153916  0.72741081  0.21938051
   0.22568409  0.27903940  0.78043041
   0.22568409  0.77903937  0.71956959
   0.72153916  0.22741076  0.28061946
   0.72153916  0.22741076  0.71938054
   0.22568409  0.77903937  0.28043041
   0.79789072  0.75020080  0.34656478
   0.79789072  0.25020082  0.84656478
   0.79789072  0.75020080  0.65343522
   0.79789072  0.25020082  0.15343522
   0.29194079  0.24688953  0.44968610
   0.29194079  0.74688954  0.94968613
   0.79203996  0.75342305  0.44988259
   0.79203996  0.25342305  0.94988262
   0.29194079  0.24688953  0.55031387
   0.29194079  0.74688954  0.05031389
   0.79203996  0.75342305  0.55011738
   0.79203996  0.25342305  0.05011740
   0.32054003  0.16204566  0.50000000
   0.82014604  0.83778439  0.50000000
   0.32054003  0.66204564  0.00000000
   0.82014604  0.33778439  0.00000000
   0.59952925  0.54993956  0.05423016
   0.09913870  0.44965706  0.94578981
   0.09913870  0.44965706  0.05421021
   0.59952925  0.54993956  0.94576986
   0.59952925  0.04993957  0.55423014
   0.09913870  0.94965709  0.44578978
   0.09913870  0.94965709  0.55421019
   0.59952925  0.04993957  0.44576983
   0.32283014  0.32145274  0.40460689
   0.82213334  0.67905461  0.59561845
   0.82213334  0.67905461  0.40438152
   0.32283014  0.32145274  0.59539308
   0.32283014  0.82145274  0.90460692
   0.82213334  0.17905460  0.09561848
   0.82213334  0.17905460  0.90438155
   0.32283014  0.82145274  0.09539311
   0.53173728  0.47295602  0.13655619
   0.02837801  0.52448330  0.86350977
   0.02837801  0.52448330  0.13649023
   0.53173728  0.47295602  0.86344381
   0.53173728  0.97295605  0.63655619
   0.02837801  0.02448331  0.36350974
   0.02837801  0.02448331  0.63649023
   0.53173728  0.97295605  0.36344378
   0.29673840  0.18191275  0.30397137
   0.79332798  0.81241541  0.69506767
   0.79332798  0.81241541  0.30493233
   0.29673840  0.18191275  0.69602863
   0.29673840  0.68191277  0.80397137
   0.79332798  0.31241544  0.19506765
   0.79332798  0.31241544  0.80493233
   0.29673840  0.68191277  0.19602861
   0.49542747  0.49335197  0.25130409
   0.99289758  0.50544228  0.74880363
   0.99289758  0.50544228  0.25119637
   0.49542747  0.49335197  0.74869591
   0.49542747  0.99335200  0.75130409
   0.99289758  0.00544229  0.24880363
   0.99289758  0.00544229  0.75119637
   0.49542747  0.99335200  0.24869591
   0.01175666  0.96090890  0.03809989
   0.51211074  0.03932030  0.96195474
   0.51211074  0.03932030  0.03804526
   0.01175666  0.96090890  0.96190011
   0.01175666  0.46090887  0.53809989
   0.51211074  0.53932028  0.46195474
   0.51211074  0.53932028  0.53804526
   0.01175666  0.46090887  0.46190011
   0.10662265  0.05594883  0.14947341
   0.60783205  0.94730988  0.85049666
   0.60783205  0.94730988  0.14950334
   0.10662265  0.05594883  0.85052659
   0.10662265  0.55594883  0.64947341
   0.60783205  0.44730988  0.35049666
   0.60783205  0.44730988  0.64950334
   0.10662265  0.55594883  0.35052659
   0.29460770  0.24936869  0.34621706
   0.29460770  0.74936869  0.84621706
   0.29460770  0.24936869  0.65378294
   0.29460770  0.74936869  0.15378294
BiTiFeO                                 
           1
     5.501733   -0.002472    0.000000
    -0.002467    5.488846    0.000000
     0.000000    0.000000   41.130867
   Bi   Ti   O    Fe
  20  12  60   4
Direct configuration=     5
   0.24576990  0.24076475  0.00000000
   0.74539617  0.75951163  0.00000000
   0.24576990  0.74076477  0.50000000
   0.74539617  0.25951166  0.50000000
   0.25733566  0.25107944  0.10679790
   0.75511400  0.74838404  0.89320091
   0.75511400  0.74838404  0.10679914
   0.25733566  0.25107944  0.89320214
   0.25733566  0.75107943  0.60679786
   0.75511400  0.24838404  0.39320085
   0.75511400  0.24838404  0.60679909
   0.25733566  0.75107943  0.39320208
   0.22571366  0.27893801  0.21954983
   0.72155268  0.72740699  0.78063871
   0.72155268  0.72740699  0.21936126
   0.22571366  0.27893801  0.78045014
   0.22571366  0.77893798  0.71954986
   0.72155268  0.22740694  0.28063871
   0.72155268  0.22740694  0.71936129
   0.22571366  0.77893798  0.28045014
   0.79784010  0.75014243  0.34665359
   0.79784010  0.25014244  0.84665359
   0.79784010  0.75014243  0.65334641
   0.79784010  0.25014244  0.15334641
   0.29182134  0.24675142  0.44985001
   0.29182134  0.74675144  0.94985004
   0.79192205  0.75353720  0.45004245
   0.79192205  0.25353720  0.95004248
   0.29182134  0.24675142  0.55014996
   0.29182134  0.74675144  0.05014998
   0.79192205  0.75353720  0.54995752
   0.79192205  0.25353720  0.04995754
   0.32050054  0.16195036  0.50000000
   0.82011099  0.83787933  0.50000000
   0.32050054  0.66195034  0.00000000
   0.82011099  0.33787933  0.00000000
   0.59954468  0.54999870  0.05427502
   0.09916564  0.44961843  0.94574516
   0.09916564  0.44961843  0.05425485
   0.59954468  0.54999870  0.94572499
   0.59954468  0.04999872  0.55427501
   0.09916564  0.94961846  0.44574513
   0.09916564  0.94961846  0.55425484
   0.59954468  0.04999872  0.44572496
   0.32298037  0.32170208  0.40444991
   0.82228702  0.67880849  0.59576668
   0.82228702  0.67880849  0.40423329
   0.32298037  0.32170208  0.59555006
   0.32298037  0.82170208  0.90444994
   0.82228702  0.17880847  0.09576671
   0.82228702  0.17880847  0.90423332
   0.32298037  0.82170208  0.09555009
   0.53178002  0.47292981  0.13656500
   0.02836220  0.52446022  0.86350148
   0.02836220  0.52446022  0.13649852
   0.53178002  0.47292981  0.86343500
   0.53178002  0.97292984  0.63656500
   0.02836220  0.02446024  0.36350145
   0.02836220  0.02446024  0.63649852
   0.53178002  0.97292984  0.36343497
   0.29668753  0.18189544  0.30393015
   0.79334278  0.81257332  0.69514520
   0.79334278  0.81257332  0.30485480
   0.29668753  0.18189544  0.69606985
   0.29668753  0.68189545  0.80393015
   0.79334278  0.31257335  0.19514518
   0.79334278  0.31257335  0.80485480
   0.29668753  0.68189545  0.19606984
   0.49539336  0.49334843  0.25130728
   0.99291081  0.50543943  0.74879874
   0.99291081  0.50543943  0.25120126
   0.49539336  0.49334843  0.74869272
   0.49539336  0.99334846  0.75130728
   0.99291081  0.00543944  0.24879874
   0.99291081  0.00543944  0.75120126
   0.49539336  0.99334846  0.24869272
   0.01172413  0.96084569  0.03812039
   0.51207076  0.03937767  0.96193322
   0.51207076  0.03937767  0.03806678
   0.01172413  0.96084569  0.96187961
   0.01172413  0.46084566  0.53812039
   0.51207076  0.53937765  0.46193322
   0.51207076  0.53937765  0.53806678
   0.01172413  0.46084566  0.46187961
   0.10654520  0.05585449  0.14951755
   0.60780866  0.94741143  0.85045362
   0.60780866  0.94741143  0.14954638
   0.10654520  0.05585449  0.85048245
   0.10654520  0.55585449  0.64951755
   0.60780866  0.44741143  0.35045362
   0.60780866  0.44741143  0.64954638
   0.10654520  0.55585449  0.35048245
   0.29460847  0.24944377  0.34628998
   0.29460847  0.74944377  0.84628998
   0.29460847  0.24944377  0.65371002
   0.29460847  0.74944377  0.15371002
BiTiFeO                                 
           1
     5.511058   -0.002349    0.000000
    -0.002343    5.500470    0.000000
     0.000000    0.000000   41.330763
   Bi   Ti   O    Fe
  20  12  60   4
Direct configuration=     6
   0.24622104  0.24175191  0.00000000
   0.74567423  0.75865479  0.00000000
   0.24622104  0.74175192  0.50000000
   0.74567423  0.25865482  0.50000000
   0.25707865  0.25026144  0.10708748
   0.75482118  0.74936686  0.89293018
   0.75482118  0.74936686  0.10706986
   0.25707865  0.25026144  0.89291256
   0.25707865  0.75026143  0.60708744
   0.75482118  0.24936686  0.39293012
   0.75482118  0.24936686  0.60706982
   0.25707865  0.75026143  0.39291250
   0.22619718  0.28020457  0.21956778
   0.72128139  0.72835960  0.78065570
   0.72128139  0.72835960  0.21934427
   0.22619718  0.28020457  0.78043219
   0.22619718  0.78020454  0.71956781
   0.72128139  0.22835956  0.28065570
   0.72128139  0.22835956  0.71934430
   0.22619718  0.78020454  0.28043219
   0.79866849  0.74767359  0.34786512
   0.79866849  0.24767361  0.84786512
   0.79866849  0.74767359  0.65213488
   0.79866849  0.24767361  0.15213488
   0.29236788  0.24682393  0.44907868
   0.29236788  0.74682395  0.94907871
   0.79267906  0.75332505  0.44912155
   0.79267906  0.25332505  0.94912158
   0.29236788  0.24682393  0.55092129
   0.29236788  0.74682395  0.05092132
   0.79267906  0.75332505  0.55087842
   0.79267906  0.25332505  0.05087844
   0.32107861  0.16341334  0.50000000
   0.82060679  0.83641991  0.50000000
   0.32107861  0.66341332  0.00000000
   0.82060679  0.33641991  0.00000000
   0.59941043  0.54956030  0.05383998
   0.09909233  0.45000772  0.94617453
   0.09909233  0.45000772  0.05382549
   0.59941043  0.54956030  0.94616003
   0.59941043  0.04956032  0.55383997
   0.09909233  0.95000775  0.44617450
   0.09909233  0.95000775  0.55382547
   0.59941043  0.04956032  0.44616000
   0.32148411  0.32030797  0.40525983
   0.82075562  0.68024058  0.59489780
   0.82075562  0.68024058  0.40510217
   0.32148411  0.32030797  0.59474014
   0.32148411  0.82030797  0.90525986
   0.82075562  0.18024056  0.09489783
   0.82075562  0.18024056  0.90510220
   0.32148411  0.82030797  0.09474017
   0.53128480  0.47349029  0.13669294
   0.02885995  0.52482405  0.86336398
   0.02885995  0.52482405  0.13663602
   0.53128480  0.47349029  0.86330706
   0.53128480  0.97349032  0.63669294
   0.02885995  0.02482407  0.36336395
   0.02885995  0.02482407  0.63663602
   0.53128480  0.97349032  0.36330703
   0.29734873  0.18045221  0.30345936
   0.79268099  0.81354282  0.69626489
   0.79268099  0.81354282  0.30373511
   0.29734873  0.18045221  0.69654064
   0.29734873  0.68045222  0.80345936
   0.79268099  0.31354285  0.19626487
   0.79268099  0.31354285  0.80373511
   0.29734873  0.68045222  0.19654063
   0.49598387  0.49320397  0.25132794
   0.99210542  0.50528962  0.74882646
   0.99210542  0.50528962  0.25117354
   0.49598387  0.49320397  0.74867206
   0.49598387  0.99320400  0.75132794
   0.99210542  0.00528964  0.24882646
   0.99210542  0.00528964  0.75117354
   0.49598387  0.99320400  0.24867206
   0.01233247  0.96177480  0.03799171
   0.51269298  0.03845771  0.96207544
   0.51269298  0.03845771  0.03792456
   0.01233247  0.96177480  0.96200829
   0.01233247  0.46177477  0.53799171
   0.51269298  0.53845769  0.46207544
   0.51269298  0.53845769  0.53792456
   0.01233247  0.46177477  0.46200829
   0.10692206  0.05579510  0.14932656
   0.60707784  0.94700789  0.85064086
   0.60707784  0.94700789  0.14935914
   0.10692206  0.05579510  0.85067344
   0.10692206  0.55579510  0.64932656
   0.60707784  0.44700789  0.35064086
   0.60707784  0.44700789  0.64935914
   0.10692206  0.55579510  0.35067344
   0.29448415  0.24990990  0.34632675
   0.29448415  0.74990990  0.84632675
   0.29448415  0.24990990  0.65367325
   0.29448415  0.74990990  0.15367325
BiTiFeO                                 
           1
     5.497435   -0.002513    0.000000
    -0.002507    5.485860    0.000000
     0.000000    0.000000   41.153798
   Bi   Ti   O    Fe
  20  12  60   4
Direct configuration=     7
   0.24594929  0.24265384  0.00000000
   0.74542833  0.75776802  0.00000000
   0.24594929  0.74265385  0.50000000
   0.74542833  0.25776805  0.50000000
   0.25811058  0.25089521  0.10674463
   0.75500728  0.74856889  0.89325874
   0.75500728  0.74856889  0.10674131
   0.25811058  0.25089521  0.89325541
   0.25811058  0.75089520  0.60674459
   0.75500728  0.24856889  0.39325868
   0.75500728  0.24856889  0.60674126
   0.25811058  0.75089520  0.39325535
   0.22597701  0.28037004  0.21955523
   0.72190136  0.72852186  0.78067296
   0.72190136  0.72852186  0.21932701
   0.22597701  0.28037004  0.78044474
   0.22597701  0.78037001  0.71955526
   0.72190136  0.22852182  0.28067296
   0.72190136  0.22852182  0.71932704
   0.22597701  0.78037001  0.28044474
   0.79823844  0.74941877  0.34709610
   0.79823844  0.24941878  0.84709610
   0.79823844  0.74941877  0.65290390
   0.79823844  0.24941878  0.15290390
   0.29196645  0.24689641  0.45020562
   0.29196645  0.74689642  0.95020565
   0.79225575  0.75340772  0.45030821
   0.79225575  0.25340772  0.95030824
   0.29196645  0.24689641  0.54979435
   0.29196645  0.74689642  0.04979437
   0.79225575  0.75340772  0.54969176
   0.79225575  0.25340772  0.04969178
   0.32143880  0.16414887  0.50000000
   0.82098229  0.83566150  0.50000000
   0.32143880  0.66414886  0.00000000
   0.82098229  0.33566150  0.00000000
   0.59973303  0.54981907  0.05395264
   0.09933764  0.44958679  0.94606415
   0.09933764  0.44958679  0.05393586
   0.59973303  0.54981907  0.94604737
   0.59973303  0.04981909  0.55395263
   0.09933764  0.94958682  0.44606412
   0.09933764  0.94958682  0.55393585
   0.59973303  0.04981909  0.44604734
   0.32114314  0.32117153  0.40454356
   0.82024615  0.67956164  0.59573058
   0.82024615  0.67956164  0.40426939
   0.32114314  0.32117153  0.59545641
   0.32114314  0.82117153  0.90454359
   0.82024615  0.17956163  0.09573061
   0.82024615  0.17956163  0.90426942
   0.32114314  0.82117153  0.09545644
   0.53138726  0.47350298  0.13677320
   0.02891645  0.52470644  0.86328652
   0.02891645  0.52470644  0.13671348
   0.53138726  0.47350298  0.86322680
   0.53138726  0.97350301  0.63677320
   0.02891645  0.02470645  0.36328649
   0.02891645  0.02470645  0.63671348
   0.53138726  0.97350301  0.36322677
   0.29750422  0.18057471  0.30346845
   0.79255702  0.81207337  0.69564925
   0.79255702  0.81207337  0.30435075
   0.29750422  0.18057471  0.69653155
   0.29750422  0.68057472  0.80346845
   0.79255702  0.31207340  0.19564923
   0.79255702  0.31207340  0.80435075
   0.29750422  0.68057472  0.19653153
   0.49586851  0.49337865  0.25133469
   0.99209830  0.50546692  0.74881903
   0.99209830  0.50546692  0.25118097
   0.49586851  0.49337865  0.74866531
   0.49586851  0.99337868  0.75133469
   0.99209830  0.00546693  0.24881903
   0.99209830  0.00546693  0.75118097
   0.49586851  0.99337868  0.24866531
   0.01294704  0.96206058  0.03817560
   0.51340150  0.03822951  0.96189842
   0.51340150  0.03822951  0.03810158
   0.01294704  0.96206058  0.96182440
   0.01294704  0.46206055  0.53817560
   0.51340150  0.53822950  0.46189842
   0.51340150  0.53822950  0.53810158
   0.01294704  0.46206055  0.46182440
   0.10638111  0.05486148  0.14927769
   0.60616745  0.94764182  0.85070832
   0.60616745  0.94764182  0.14929168
   0.10638111  0.05486148  0.85072231
   0.10638111  0.55486148  0.64927769
   0.60616745  0.44764182  0.35070832
   0.60616745  0.44764182  0.64929168
   0.10638111  0.55486148  0.35072231
   0.29435488  0.24916944  0.34608282
   0.29435488  0.74916944  0.84608282
   0.29435488  0.24916944  0.65391718
   0.29435488  0.74916944  0.15391718
BiTiFeO                                 
           1
     5.492832   -0.003111    0.000000
    -0.003104    5.480816    0.000000
     0.000000    0.000000   41.243096
   Bi   Ti   O    Fe
  20  12  60   4
Direct configuration=     8
   0.24611512  0.24306933  0.00000000
   0.74559711  0.75739730  0.00000000
   0.24611512  0.74306934  0.50000000
   0.74559711  0.25739733  0.50000000
   0.25823454  0.25070771  0.10683467
   0.75454737  0.74864629  0.89316981
   0.75454737  0.74864629  0.10683024
   0.25823454  0.25070771  0.89316538
   0.25823454  0.75070770  0.60683462
   0.75454737  0.24864629  0.39316975
   0.75454737  0.24864629  0.60683019
   0.25823454  0.75070770  0.39316532
   0.22580393  0.28100853  0.21966814
   0.72207804  0.72865866  0.78055086
   0.72207804  0.72865866  0.21944911
   0.22580393  0.28100853  0.78033183
   0.22580393  0.78100850  0.71966817
   0.72207804  0.22865862  0.28055086
   0.72207804  0.22865862  0.71944914
   0.22580393  0.78100850  0.28033183
   0.79818600  0.75042022  0.34639352
   0.79818600  0.25042024  0.84639352
   0.79818600  0.75042022  0.65360648
   0.79818600  0.25042024  0.15360648
   0.29220837  0.24733282  0.45004352
   0.29220837  0.74733283  0.95004355
   0.79249163  0.75313082  0.45018666
   0.79249163  0.25313082  0.95018669
   0.29220837  0.24733282  0.54995645
   0.29220837  0.74733283  0.04995647
   0.79249163  0.75313082  0.54981331
   0.79249163  0.25313082  0.04981333
   0.32179222  0.16493547  0.50000000
   0.82135172  0.83487147  0.50000000
   0.32179222  0.66493546  0.00000000
   0.82135172  0.33487147  0.00000000
   0.59988279  0.54970654  0.05375117
   0.09947827  0.44956666  0.94626454
   0.09947827  0.44956666  0.05373548
   0.59988279  0.54970654  0.94624885
   0.59988279  0.04970655  0.55375115
   0.09947827  0.94956669  0.44626451
   0.09947827  0.94956669  0.55373546
   0.59988279  0.04970655  0.44624882
   0.32046383  0.32069647  0.40483924
   0.81942383  0.68015400  0.59554601
   0.81942383  0.68015400  0.40445396
   0.32046383  0.32069647  0.59516073
   0.32046383  0.82069647  0.90483927
   0.81942383  0.18015399  0.09554604
   0.81942383  0.18015399  0.90445399
   0.32046383  0.82069647  0.09516076
   0.53124376  0.47355122  0.13680069
   0.02889589  0.52472260  0.86325824
   0.02889589  0.52472260  0.13674176
   0.53124376  0.47355122  0.86319931
   0.53124376  0.97355125  0.63680069
   0.02889589  0.02472262  0.36325821
   0.02889589  0.02472262  0.63674176
   0.53124376  0.97355125  0.36319928
   0.29781932  0.18067080  0.30359670
   0.79242427  0.81061278  0.69501944
   0.79242427  0.81061278  0.30498056
   0.29781932  0.18067080  0.69640330
   0.29781932  0.68067081  0.80359670
   0.79242427  0.31061281  0.19501942
   0.79242427  0.31061281  0.80498056
   0.29781932  0.68067081  0.19640329