BiTiFeO                                 
           1
     5.496449    0.000752    0.004884
     0.000751    5.480206   -0.001331
     0.036168   -0.009878   40.439619
   Bi   Ti   O    Fe
  20  12  60   4
Direct configuration=     1
   0.24484409  0.23757862  0.00000000
   0.74484408  0.76242137  0.00000000
   0.24484409  0.73757863  0.50000000
   0.74484408  0.26242140  0.50000000
   0.25198972  0.24830766  0.10393570
   0.75198966  0.75169236  0.89606434
   0.75198966  0.75169236  0.10393570
   0.25198972  0.24830766  0.89606434
   0.25198972  0.74830764  0.60393566
   0.75198966  0.25169236  0.39606428
   0.75198966  0.25169236  0.60393566
   0.25198972  0.74830764  0.39606428
   0.22412699  0.27433315  0.21935007
   0.72412699  0.72566688  0.78064990
   0.72412699  0.72566688  0.21935007
   0.22412699  0.27433315  0.78064990
   0.22412699  0.77433312  0.71935010
   0.72412699  0.22566684  0.28064990
   0.72412699  0.22566684  0.71935010
   0.22412699  0.77433312  0.28064990
   0.79682386  0.74890918  0.34797305
   0.79682386  0.24890919  0.84797305
   0.29682383  0.25109082  0.65202695
   0.29682383  0.75109082  0.15202695
   0.79682386  0.74890918  0.65202695
   0.79682386  0.24890919  0.15202695
   0.79357010  0.75361604  0.45064172
   0.79357010  0.25361604  0.95064175
   0.29357013  0.24638395  0.54935825
   0.29357013  0.74638396  0.04935827
   0.79357010  0.75361604  0.54935825
   0.79357010  0.25361604  0.04935827
   0.31881350  0.15770908  0.50000000
   0.81881350  0.84229094  0.50000000
   0.31881350  0.65770906  0.00000000
   0.81881350  0.34229094  0.00000000
   0.60082728  0.55501008  0.05564614
   0.10082728  0.44498989  0.94435388
   0.10082728  0.44498989  0.05564614
   0.60082728  0.55501008  0.94435388
   0.60082728  0.05501010  0.55564612
   0.10082728  0.94498992  0.44435385
   0.10082728  0.94498992  0.55564612
   0.60082728  0.05501010  0.44435385
   0.32772058  0.32494432  0.40226784
   0.82772058  0.67505568  0.59773213
   0.82772058  0.67505568  0.40226784
   0.32772058  0.32494432  0.59773213
   0.32772058  0.82494432  0.90226787
   0.82772058  0.17505567  0.09773216
   0.82772058  0.17505567  0.90226787
   0.32772058  0.82494432  0.09773216
   0.53021055  0.47461614  0.13739407
   0.03021055  0.52538383  0.86260593
   0.03021055  0.52538383  0.13739407
   0.53021055  0.47461614  0.86260593
   0.53021055  0.97461617  0.63739407
   0.03021055  0.02538385  0.36260590
   0.03021055  0.02538385  0.63739407
   0.53021055  0.97461617  0.36260590
   0.29461476  0.18484382  0.30443299
   0.79461479  0.81515616  0.69556701
   0.79461479  0.81515616  0.30443299
   0.29461476  0.18484382  0.69556701
   0.29461476  0.68484384  0.80443299
   0.79461479  0.31515619  0.19556700
   0.79461479  0.31515619  0.80443299
   0.29461476  0.68484384  0.19556700
   0.49390233  0.49391797  0.25123006
   0.99390238  0.50608200  0.74876994
   0.99390238  0.50608200  0.25123006
   0.49390233  0.49391797  0.74876994
   0.49390233  0.99391800  0.75123006
   0.99390238  0.00608201  0.24876994
   0.99390238  0.00608201  0.75123006
   0.49390233  0.99391800  0.24876994
   0.00880992  0.95784479  0.03788698
   0.50880992  0.04215522  0.96211302
   0.50880992  0.04215522  0.03788698
   0.00880992  0.95784479  0.96211302
   0.00880992  0.45784476  0.53788698
   0.50880992  0.54215521  0.46211302
   0.50880992  0.54215521  0.53788698
   0.00880992  0.45784476  0.46211302
   0.10677507  0.05355787  0.15066576
   0.60677504  0.94644213  0.84933424
   0.60677504  0.94644213  0.15066576
   0.10677507  0.05355787  0.84933424
   0.10677507  0.55355787  0.65066576
   0.60677504  0.44644213  0.34933424
   0.60677504  0.44644213  0.65066576
   0.10677507  0.55355787  0.34933424
   0.29682383  0.25109082  0.34797305
   0.29682383  0.75109082  0.84797305
   0.29357013  0.24638395  0.45064172
   0.29357013  0.74638396  0.95064175
BiTiFeO                                 
           1
     5.514110    0.000302    0.001964
     0.000302    5.500424   -0.000517
     0.014436   -0.003803   40.845058
   Bi   Ti   O    Fe
  20  12  60   4
Direct configuration=     2
   0.24659654  0.23850050 -0.00217214
   0.74477096  0.76219830 -0.00218244
   0.24659654  0.73850052  0.49782786
   0.74477096  0.26219833  0.49781756
   0.25274873  0.24870036  0.10513099
   0.75029985  0.74993173  0.89382433
   0.75268885  0.75125444  0.10512656
   0.25455154  0.24839771  0.89379238
   0.25274873  0.74870034  0.60513095
   0.75029985  0.24993173  0.39382427
   0.75268885  0.25125444  0.60512651
   0.25455154  0.74839769  0.39379232
   0.22519847  0.27216896  0.22068160
   0.72139626  0.72426751  0.78211211
   0.72548930  0.72782541  0.22061248
   0.22427954  0.27792100  0.78213950
   0.22519847  0.77216893  0.72068163
   0.72139626  0.22426746  0.28211211
   0.72548930  0.22782537  0.72061251
   0.22427954  0.77792097  0.28213950
   0.79822695  0.74758390  0.34784946
   0.79822695  0.24758391  0.84784946
   0.29708880  0.25004038  0.65369885
   0.29708880  0.75004038  0.15369885
   0.79707388  0.74997805  0.65371520
   0.79707388  0.24997807  0.15371520
   0.79419183  0.75696492  0.44806028
   0.79419183  0.25696492  0.94806031
   0.29217183  0.24568389  0.54880649
   0.29217183  0.74568391  0.04880651
   0.79232290  0.75356498  0.54921836
   0.79232290  0.25356498  0.04921838
   0.31922417  0.15949247  0.50153622
   0.81862285  0.84015925  0.50133362
   0.31922417  0.65949245  0.00153622
   0.81862285  0.34015925  0.00133362
   0.60034817  0.55065317  0.05552938
   0.09775112  0.44420917  0.94588886
   0.09966865  0.44884293  0.05551703
   0.60330567  0.54909671  0.94579922
   0.60034817  0.05065319  0.55552936
   0.09775112  0.94420920  0.44588883
   0.09966865  0.94884296  0.55551701
   0.60330567  0.04909673  0.44579919
   0.32732948  0.32422919  0.40396122
   0.82625066  0.67672471  0.59647616
   0.82460799  0.67827806  0.40454246
   0.32641869  0.32339819  0.59655116
   0.32732948  0.82422919  0.90396125
   0.82625066  0.17672469  0.09647619
   0.82460799  0.17827804  0.90454249
   0.32641869  0.82339819  0.09655119
   0.52945336  0.47473855  0.13683119
   0.02860691  0.52472289  0.86326830
   0.02942700  0.52521506  0.13683287
   0.53095880  0.47301774  0.86329248
   0.52945336  0.97473858  0.63683119
   0.02860691  0.02472291  0.36326828
   0.02942700  0.02521508  0.63683287
   0.53095880  0.97301777  0.36329245
   0.29633078  0.18268711  0.30379439
   0.79380156  0.81247607  0.69428355
   0.79494367  0.81642876  0.30367518
   0.29376597  0.18746807  0.69428735
   0.29633078  0.68268712  0.80379439
   0.79380156  0.31247610  0.19428354
   0.79494367  0.31642879  0.80367518
   0.29376597  0.68746809  0.19428733
   0.49398010  0.49429879  0.25045073
   0.99414566  0.50595168  0.74793973
   0.99311587  0.50581757  0.25039130
   0.49434084  0.49341868  0.74797251
   0.49398010  0.99429882  0.75045073
   0.99414566  0.00595169  0.24793973
   0.99311587  0.00581758  0.75039130
   0.49434084  0.99341871  0.24797251
   0.01048651  0.95954519  0.03880651
   0.51100266  0.04278105  0.96287678
   0.51142280  0.04101413  0.03878579
   0.00740336  0.96071354  0.96289980
   0.01048651  0.45954516  0.53880651
   0.51100266  0.54278104  0.46287678
   0.51142280  0.54101411  0.53878579
   0.00740336  0.46071351  0.46289980
   0.10730896  0.05483517  0.15002578
   0.60944506  0.94616002  0.84988167
   0.60734813  0.94521618  0.15002838
   0.10712560  0.05691208  0.84992895
   0.10730896  0.55483517  0.65002578
   0.60944506  0.44616002  0.34988167
   0.60734813  0.44521618  0.65002838
   0.10712560  0.55691208  0.34992895
   0.29566812  0.25077431  0.34769052
   0.29566812  0.75077431  0.84769052
   0.29209445  0.24574137  0.44850684
   0.29209445  0.74574138  0.94850687
BiTiFeO                                 
           1
     5.517262   -0.000534   -0.002751
    -0.000532    5.504043   -0.000822
    -0.020481   -0.006073   40.861338
   Bi   Ti   O    Fe
  20  12  60   4
Direct configuration=     3
   0.24649386  0.23881090 -0.00210007
   0.74483374  0.76195779 -0.00209948
   0.24649386  0.73881091  0.49789993
   0.74483374  0.26195782  0.49790052
   0.25310581  0.24851062  0.10488451
   0.75041095  0.74943108  0.89407936
   0.75292242  0.75138037  0.10487772
   0.25570472  0.24856124  0.89404707
   0.25310581  0.74851060  0.60488446
   0.75041095  0.24943108  0.39407930
   0.75292242  0.25138037  0.60487768
   0.25570472  0.74856123  0.39404701
   0.22606878  0.27153928  0.22048092
   0.72051869  0.72457153  0.78210852
   0.72663262  0.72848370  0.22037570
   0.22426011  0.27850477  0.78213301
   0.22606878  0.77153925  0.72048095
   0.72051869  0.22457148  0.28210852
   0.72663262  0.22848365  0.72037573
   0.22426011  0.77850474  0.28213301
   0.79821547  0.74827404  0.34782185
   0.79821547  0.24827405  0.84782185
   0.29710150  0.25173332  0.65210730
   0.29710150  0.75173332  0.15210730
   0.79709566  0.74827717  0.65212079
   0.79709566  0.24827718  0.15212079
   0.79351987  0.75635514  0.44911339
   0.79351987  0.25635514  0.94911342
   0.29190470  0.24567446  0.54895338
   0.29190470  0.74567447  0.04895340
   0.79217658  0.75372566  0.54925585
   0.79217658  0.25372566  0.04925587
   0.31934660  0.15997066  0.50129520
   0.81873824  0.83968995  0.50111847
   0.31934660  0.65997064  0.00129520
   0.81873824  0.33968995  0.00111847
   0.60024948  0.55037352  0.05555268
   0.09878010  0.44458016  0.94590941
   0.09969515  0.44921782  0.05553580
   0.60266206  0.54991033  0.94577997
   0.60024948  0.05037353  0.55555267
   0.09878010  0.94458019  0.44590939
   0.09969515  0.94921785  0.55553578
   0.60266206  0.04991035  0.44577994
   0.32734909  0.32456406  0.40366591
   0.82589337  0.67683941  0.59651737
   0.82411887  0.67751516  0.40377252
   0.32611012  0.32324871  0.59654971
   0.32734909  0.82456406  0.90366594
   0.82589337  0.17683939  0.09651740
   0.82411887  0.17751515  0.90377255
   0.32611012  0.82324871  0.09654974
   0.52954065  0.47466436  0.13701809
   0.02829093  0.52438626  0.86316878
   0.02946349  0.52524806  0.13702319
   0.53148602  0.47261577  0.86319578
   0.52954065  0.97466439  0.63701809
   0.02829093  0.02438627  0.36316875
   0.02946349  0.02524807  0.63702319
   0.53148602  0.97261580  0.36319575
   0.29675739  0.18216064  0.30361934
   0.79331457  0.81432133  0.69572778
   0.79486186  0.81619220  0.30363551
   0.29326882  0.18559367  0.69572068
   0.29675739  0.68216066  0.80361934
   0.79331457  0.31432136  0.19572777
   0.79486186  0.31619223  0.80363551
   0.29326882  0.68559368  0.19572067
   0.49398555  0.49388783  0.25064407
   0.99393152  0.50530098  0.74808392
   0.99296038  0.50631034  0.25057701
   0.49427242  0.49381744  0.74811247
   0.49398555  0.99388786  0.75064407
   0.99393152  0.00530100  0.24808392
   0.99296038  0.00631035  0.75057701
   0.49427242  0.99381747  0.24811247
   0.01067510  0.95952177  0.03882472
   0.51195105  0.04218089  0.96266605
   0.51147891  0.04081875  0.03880892
   0.00837465  0.96121912  0.96270001
   0.01067510  0.45952174  0.53882472
   0.51195105  0.54218087  0.46266605
   0.51147891  0.54081874  0.53880892
   0.00837465  0.46121909  0.46270001
   0.10700906  0.05457252  0.15018519
   0.60915569  0.94674456  0.84979277
   0.60707564  0.94552855  0.15019033
   0.10676714  0.05666515  0.84985536
   0.10700906  0.55457252  0.65018519
   0.60915569  0.44674456  0.34979277
   0.60707564  0.44552855  0.65019033
   0.10676714  0.55666515  0.34985536
   0.29507771  0.25050196  0.34771289
   0.29507771  0.75050196  0.84771289
   0.29119273  0.24604692  0.44888022
   0.29119273  0.74604694  0.94888025
BiTiFeO                                 
           1
     5.509696   -0.000562   -0.001367
    -0.000560    5.496427   -0.001629
    -0.010149   -0.012047   40.904770
   Bi   Ti   O    Fe
  20  12  60   4
Direct configuration=     4
   0.24661915  0.23968908 -0.00239030
   0.74461409  0.76149545 -0.00235665
   0.24661915  0.73968910  0.49760970
   0.74461409  0.26149548  0.49764335
   0.25369741  0.24869073  0.10451672
   0.74994026  0.74883769  0.89403735
   0.75325752  0.75105878  0.10449907
   0.25714045  0.24844515  0.89399116
   0.25369741  0.74869072  0.60451668
   0.74994026  0.24883769  0.39403729
   0.75325752  0.25105878  0.60449903
   0.25714045  0.74844513  0.39399110
   0.22729102  0.27146821  0.22041386
   0.71761192  0.72537012  0.78175090
   0.72887017  0.72869479  0.22021877
   0.22389508  0.28036383  0.78176314
   0.22729102  0.77146818  0.72041389
   0.71761192  0.22537007  0.28175090
   0.72887017  0.22869474  0.72021880
   0.22389508  0.78036380  0.28176314
   0.79859995  0.74979580  0.34719919
   0.79859995  0.24979581  0.84719919
   0.29662118  0.24902607  0.65314808
   0.29662118  0.74902607  0.15314808
   0.79667821  0.75101359  0.65318700
   0.79667821  0.25101360  0.15318700
   0.79338029  0.75448562  0.44982976
   0.79338029  0.25448562  0.94982979
   0.29128385  0.24552579  0.54883762
   0.29128385  0.74552581  0.04883764
   0.79173483  0.75391825  0.54907188
   0.79173483  0.25391825  0.04907190
   0.31988629  0.16167187  0.50118048
   0.81909637  0.83802127  0.50094447
   0.31988629  0.66167186  0.00118048
   0.81909637  0.33802127  0.00094447
   0.59994694  0.54909238  0.05566582
   0.10052977  0.44467474  0.94638972
   0.09940614  0.45043963  0.05563594
   0.60180688  0.55099071  0.94616880
   0.59994694  0.04909239  0.55566580
   0.10052977  0.94467477  0.44638969
   0.09940614  0.95043966  0.55563593
   0.60180688  0.05099073  0.44616877
   0.32711521  0.32460505  0.40364786
   0.82485517  0.67729852  0.59652258
   0.82210585  0.67805886  0.40354387
   0.32523175  0.32277175  0.59650581
   0.32711521  0.82460505  0.90364789
   0.82485517  0.17729850  0.09652261
   0.82210585  0.17805884  0.90354390
   0.32523175  0.82277175  0.09650584
   0.52951313  0.47456956  0.13702667
   0.02770873  0.52396821  0.86311268
   0.02938112  0.52526987  0.13703693
   0.53213340  0.47184972  0.86313697
   0.52951313  0.97456959  0.63702667
   0.02770873  0.02396823  0.36311265
   0.02938112  0.02526988  0.63703693
   0.53213340  0.97184975  0.36313694
   0.29825071  0.18118670  0.30367685
   0.79258570  0.81198690  0.69479173
   0.79479500  0.81491649  0.30410095
   0.29249651  0.18777678  0.69478751
   0.29825071  0.68118672  0.80367685
   0.79258570  0.31198693  0.19479171
   0.79479500  0.31491652  0.80410095
   0.29249651  0.68777680  0.19478749
   0.49459055  0.49315485  0.25111291
   0.99374307  0.50387431  0.74856898
   0.99314473  0.50727713  0.25102186
   0.49450991  0.49452720  0.74857810
   0.49459055  0.99315488  0.75111291
   0.99374307  0.00387433  0.24856898
   0.99314473  0.00727714  0.75102186
   0.49450991  0.99452723  0.24857810
   0.01150571  0.95980829  0.03903690
   0.51414061  0.04065690  0.96245719
   0.51234626  0.04026846  0.03902637
   0.01049245  0.96280802  0.96250130
   0.01150571  0.45980826  0.53903690
   0.51414061  0.54065688  0.46245719
   0.51234626  0.54026844  0.53902637
   0.01049245  0.46280799  0.46250130
   0.10665980  0.05439234  0.14999589
   0.60888905  0.94723955  0.84990916
   0.60672507  0.94575263  0.15000531
   0.10683762  0.05687257  0.85001465
   0.10665980  0.55439234  0.64999589
   0.60888905  0.44723955  0.34990916
   0.60672507  0.44575263  0.65000531
   0.10683762  0.55687257  0.35001465
   0.29364967  0.24937360  0.34714515
   0.29364967  0.74937360  0.84714515
   0.28948529  0.24696609  0.44903299
   0.28948529  0.74696611  0.94903302
BiTiFeO                                 
           1
     5.510415   -0.000795    0.000636
    -0.000792    5.497914   -0.001321
     0.004741   -0.009731   40.972398
   Bi   Ti   O    Fe
  20  12  60   4
Direct configuration=     5
   0.24689867  0.24007214 -0.00248910
   0.74437965  0.76125699 -0.00245537
   0.24689867  0.74007215  0.49751090
   0.74437965  0.26125702  0.49754463
   0.25347975  0.24831493  0.10450692
   0.74960138  0.74907709  0.89398736
   0.75302331  0.75140854  0.10448511
   0.25708941  0.24815647  0.89393297
   0.25347975  0.74831491  0.60450688
   0.74960138  0.24907709  0.39398730
   0.75302331  0.25140854  0.60448507
   0.25708941  0.74815646  0.39393291
   0.22728264  0.27156433  0.22055537
   0.71697458  0.72579315  0.78185216
   0.72931083  0.72868423  0.22033908
   0.22396609  0.28070196  0.78185040
   0.22728264  0.77156430  0.72055540
   0.71697458  0.22579311  0.28185216
   0.72931083  0.22868418  0.72033911
   0.22396609  0.78070193  0.28185040
   0.79872600  0.74920568  0.34751711
   0.79872600  0.24920570  0.84751711
   0.29675837  0.24986645  0.65267188
   0.29675837  0.74986645  0.15267188
   0.79683690  0.75014506  0.65268867
   0.79683690  0.25014508  0.15268867
   0.79352604  0.75465939  0.44955451
   0.79352604  0.25465939  0.94955454
   0.29125959  0.24581111  0.54886743
   0.29125959  0.74581112  0.04886745
   0.79173949  0.75354507  0.54915591
   0.79173949  0.25354507  0.04915593
   0.32011901  0.16213843  0.50118542
   0.81923816  0.83755215  0.50092325
   0.32011901  0.66213842  0.00118542
   0.81923816  0.33755215  0.00092325
   0.59975879  0.54869533  0.05565616
   0.10064714  0.44434991  0.94657840
   0.09912621  0.45071432  0.05562463
   0.60208621  0.55082166  0.94634777
   0.59975879  0.04869535  0.55565614
   0.10064714  0.94434994  0.44657837
   0.09912621  0.95071435  0.55562462
   0.60208621  0.05082168  0.44634774
   0.32702026  0.32448496  0.40372154
   0.82464378  0.67745578  0.59642911
   0.82157928  0.67862497  0.40381774
   0.32507746  0.32263822  0.59642782
   0.32702026  0.82448496  0.90372157
   0.82464378  0.17745576  0.09642914
   0.82157928  0.17862495  0.90381777
   0.32507746  0.82263822  0.09642785
   0.52944151  0.47461034  0.13706476
   0.02781988  0.52411243  0.86305807
   0.02932561  0.52523242  0.13707452
   0.53196059  0.47186472  0.86308189
   0.52944151  0.97461037  0.63706476
   0.02781988  0.02411245  0.36305804
   0.02932561  0.02523244  0.63707452
   0.53196059  0.97186475  0.36308186
   0.29877802  0.18062625  0.30351935
   0.79230286  0.81239087  0.69520479
   0.79474795  0.81520655  0.30382235
   0.29218211  0.18733067  0.69518084
   0.29877802  0.68062626  0.80351935
   0.79230286  0.31239090  0.19520478
   0.79474795  0.31520658  0.80382235
   0.29218211  0.68733069  0.19518083
   0.49475867  0.49341659  0.25107169
   0.99369312  0.50394756  0.74853930
   0.99320647  0.50712073  0.25097899
   0.49463697  0.49424533  0.74853023
   0.49475867  0.99341662  0.75107169
   0.99369312  0.00394758  0.24853930
   0.99320647  0.00712075  0.75097899
   0.49463697  0.99424536  0.24853023
   0.01171024  0.96002408  0.03907565
   0.51456221  0.04025972  0.96246630
   0.51269013  0.04009924  0.03906172
   0.01093951  0.96324973  0.96250432
   0.01171024  0.46002405  0.53907565
   0.51456221  0.54025971  0.46246630
   0.51269013  0.54009922  0.53906172
   0.01093951  0.46324970  0.46250432
   0.10663498  0.05431744  0.14997254
   0.60869793  0.94715124  0.84991151
   0.60667037  0.94581408  0.14998262
   0.10708721  0.05680127  0.85002562
   0.10663498  0.55431744  0.64997254
   0.60869793  0.44715124  0.34991151
   0.60667037  0.44581408  0.64998262
   0.10708721  0.55680127  0.35002562
   0.29341618  0.24947709  0.34719255
   0.29341618  0.74947709  0.84719255
   0.28938835  0.24696317  0.44894805
   0.28938835  0.74696319  0.94894808
BiTiFeO                                 
           1
     5.502539   -0.001272    0.001410
    -0.001269    5.490234   -0.002239
     0.010451   -0.016546   41.009433
   Bi   Ti   O    Fe
  20  12  60   4
Direct configuration=     6
   0.24733337  0.24128898 -0.00267928
   0.74396832  0.76034594 -0.00264324
   0.24733337  0.74128899  0.49732072
   0.74396832  0.26034596  0.49735676
   0.25345491  0.24795975  0.10434734
   0.74860709  0.74913207  0.89398029
   0.75286443  0.75163343  0.10431436
   0.25790051  0.24774712  0.89391615
   0.25345491  0.74795974  0.60434729
   0.74860709  0.24913207  0.39398023
   0.75286443  0.25163343  0.60431431
   0.25790051  0.74774711  0.39391609
   0.22747294  0.27186251  0.22067224
   0.71558100  0.72691492  0.78195115
   0.73085530  0.72857688  0.22042269
   0.22392519  0.28125443  0.78190034
   0.22747294  0.77186248  0.72067227
   0.71558100  0.22691487  0.28195115
   0.73085530  0.22857684  0.72042272
   0.22392519  0.78125440  0.28190034
   0.79877791  0.74966556  0.34715842
   0.79877791  0.24966557  0.84715842
   0.29675793  0.24967310  0.65272986
   0.29675793  0.74967310  0.15272986
   0.79687170  0.75034926  0.65275803
   0.79687170  0.25034927  0.15275803
   0.79352358  0.75476342  0.44969716
   0.79352358  0.25476342  0.94969719
   0.29115822  0.24638319  0.54883822
   0.29115822  0.74638321  0.04883824
   0.79190858  0.75296644  0.54911016
   0.79190858  0.25296644  0.04911019
   0.32071326  0.16361348  0.50113908
   0.81964415  0.83610765  0.50085113
   0.32071326  0.66361346  0.00113908
   0.81964415  0.33610765  0.00085113
   0.59902505  0.54784463  0.05566906
   0.10178354  0.44376464  0.94700326
   0.09844156  0.45147822  0.05563252
   0.60241193  0.55123822  0.94673046
   0.59902505  0.04784464  0.55566904
   0.10178354  0.94376467  0.44700323
   0.09844156  0.95147825  0.55563250
   0.60241193  0.05123823  0.44673044
   0.32678663  0.32426305  0.40373356
   0.82389810  0.67781914  0.59637019
   0.82004477  0.67961005  0.40388724
   0.32451725  0.32227164  0.59635482
   0.32678663  0.82426305  0.90373359
   0.82389810  0.17781913  0.09637022
   0.82004477  0.17961004  0.90388727
   0.32451725  0.82227164  0.09635485
   0.52918714  0.47457997  0.13707613
   0.02784157  0.52431435  0.86295003
   0.02903088  0.52521260  0.13708598
   0.53150655  0.47177043  0.86298196
   0.52918714  0.97458000  0.63707613
   0.02784157  0.02431437  0.36295000
   0.02903088  0.02521262  0.63708598
   0.53150655  0.97177046  0.36298193
   0.30010060  0.18003428  0.30343206
   0.79162611  0.81159444  0.69515075
   0.79463124  0.81424011  0.30406513
   0.29136359  0.18791247  0.69513832
   0.30010060  0.68003430  0.80343206
   0.79162611  0.31159447  0.19515073
   0.79463124  0.31424014  0.80406513
   0.29136359  0.68791248  0.19513831
   0.49510661  0.49389897  0.25114087
   0.99360395  0.50402621  0.74864295
   0.99348559  0.50694425  0.25106408
   0.49483242  0.49392611  0.74858241
   0.49510661  0.99389900  0.75114087
   0.99360395  0.00402622  0.24864295
   0.99348559  0.00694427  0.75106408
   0.49483242  0.99392614  0.24858241
   0.01234048  0.96053094  0.03920691
   0.51585882  0.03891089  0.96235750
   0.51337259  0.03939768  0.03918554
   0.01257618  0.96426626  0.96238705
   0.01234048  0.46053091  0.53920691
   0.51585882  0.53891088  0.46235750
   0.51337259  0.53939766  0.53918554
   0.01257618  0.46426623  0.46238705
   0.10644512  0.05417204  0.14980117
   0.60805214  0.94705206  0.85000869
   0.60648027  0.94601519  0.14981644
   0.10742510  0.05646327  0.85013813
   0.10644512  0.55417204  0.64980117
   0.60805214  0.44705206  0.35000869
   0.60648027  0.44601519  0.64981644
   0.10742510  0.55646327  0.35013813
   0.29279350  0.24891691  0.34695055
   0.29279350  0.74891691  0.84695055
   0.28891218  0.24729273  0.44899209
   0.28891218  0.74729275  0.94899212
BiTiFeO                                 
           1
     5.499721   -0.001822    0.004541
    -0.001819    5.487710   -0.002291
     0.033704   -0.016879   41.128583
   Bi   Ti   O    Fe
  20  12  60   4
Direct configuration=     7
   0.24771686  0.24232104 -0.00281701
   0.74368933  0.75962452 -0.00277178
   0.24771686  0.74232106  0.49718299
   0.74368933  0.25962455  0.49722822
   0.25329084  0.24788061  0.10422381
   0.74754807  0.74947935  0.89394305
   0.75258588  0.75162359  0.10417736
   0.25795593  0.24721959  0.89386019
   0.25329084  0.74788060  0.60422376
   0.74754807  0.24947935  0.39394299
   0.75258588  0.25162359  0.60417732
   0.25795593  0.74721957  0.39386013
   0.22767879  0.27211304  0.22071272
   0.71409620  0.72787333  0.78194802
   0.73207528  0.72861054  0.22044436
   0.22420837  0.28181569  0.78185585
   0.22767879  0.77211301  0.72071275
   0.71409620  0.22787329  0.28194802
   0.73207528  0.22861050  0.72044439
   0.22420837  0.78181566  0.28185585
   0.79902432  0.74914700  0.34755546
   0.79902432  0.24914701  0.84755546
   0.29669682  0.24939378  0.65268412
   0.29669682  0.74939378  0.15268412
   0.79679884  0.75053491  0.65266650
   0.79679884  0.25053493  0.15266650
   0.79384111  0.75430475  0.44973741
   0.79384111  0.25430475  0.94973744
   0.29117633  0.24675131  0.54884295
   0.29117633  0.74675133  0.04884297
   0.79205413  0.75260383  0.54911467
   0.79205413  0.25260383  0.04911469
   0.32132951  0.16484469  0.50110571
   0.82004861  0.83487176  0.50081118
   0.32132951  0.66484467  0.00110571
   0.82004861  0.33487176  0.00081118
   0.59835057  0.54695905  0.05564760
   0.10298559  0.44327967  0.94735134
   0.09778783  0.45221479  0.05560883
   0.60283713  0.55177228  0.94705989
   0.59835057  0.04695907  0.55564759
   0.10298559  0.94327970  0.44735131
   0.09778783  0.95221482  0.55560882
   0.60283713  0.05177229  0.44705986
   0.32669870  0.32389368  0.40377472
   0.82333593  0.67802922  0.59631083
   0.81879125  0.68061620  0.40401015
   0.32409481  0.32206369  0.59629825
   0.32669870  0.82389368  0.90377475
   0.82333593  0.17802921  0.09631086
   0.81879125  0.18061619  0.90401018
   0.32409481  0.82206369  0.09629828
   0.52893040  0.47448564  0.13708069
   0.02769066  0.52437112  0.86281360
   0.02878602  0.52529284  0.13708907
   0.53111515  0.47164907  0.86285579
   0.52893040  0.97448567  0.63708069
   0.02769066  0.02437114  0.36281357
   0.02878602  0.02529286  0.63708907
   0.53111515  0.97164910  0.36285576
   0.30137655  0.17948830  0.30327180
   0.79109390  0.81101647  0.69521367
   0.79438225  0.81406032  0.30375226
   0.29060160  0.18831906  0.69516683
   0.30137655  0.67948831  0.80327180
   0.79109390  0.31101650  0.19521366
   0.79438225  0.31406035  0.80375226
   0.29060160  0.68831908  0.19516682
   0.49551021  0.49426718  0.25124719
   0.99347992  0.50397751  0.74880516
   0.99363946  0.50689798  0.25118758
   0.49517855  0.49372098  0.74868479
   0.49551021  0.99426721  0.75124719
   0.99347992  0.00397752  0.24880516
   0.99363946  0.00689800  0.75118758
   0.49517855  0.99372101  0.24868479
   0.01289919  0.96103535  0.03930104
   0.51698667  0.03790813  0.96227689
   0.51403327  0.03875135  0.03926721
   0.01385043  0.96505212  0.96229862
   0.01289919  0.46103532  0.53930104
   0.51698667  0.53790811  0.46227689
   0.51403327  0.53875133  0.53926721
   0.01385043  0.46505209  0.46229862
   0.10625026  0.05399782  0.14964648
   0.60758633  0.94711934  0.85006436
   0.60624889  0.94618604  0.14966306
   0.10749053  0.05625423  0.85021488
   0.10625026  0.55399782  0.64964648
   0.60758633  0.44711934  0.35006436
   0.60624889  0.44618604  0.64966306
   0.10749053  0.55625423  0.35021488
   0.29233906  0.24856492  0.34690419
   0.29233906  0.74856492  0.84690419
   0.28863354  0.24774216  0.44903858
   0.28863354  0.74774217  0.94903861
BiTiFeO                                 
           1
     5.503115   -0.001460    0.003336
    -0.001457    5.490459   -0.002201
     0.024818   -0.016255   41.047636
   Bi   Ti   O    Fe
  20  12  60   4
Direct configuration=     8
   0.24881115  0.24465788 -0.00301115
   0.74324998  0.75794754 -0.00295534
   0.24881115  0.74465790  0.49698885
   0.74324998  0.25794757  0.49704466
   0.25296105  0.24754483  0.10400561
   0.74519666  0.74990338  0.89391394
   0.75203304  0.75174783  0.10392739
   0.25845819  0.24630007  0.89378569
   0.25296105  0.74754482  0.60400556
   0.74519666  0.24990338  0.39391388
   0.75203304  0.25174783  0.60392735
   0.25845819  0.74630005  0.39378563
   0.22803440  0.27230254  0.22087909
   0.71199647  0.72946032  0.78214640
   0.73495773  0.72906966  0.22061150
   0.22448683  0.28246848  0.78193029
   0.22803440  0.77230251  0.72087912
   0.71199647  0.22946027  0.28214640
   0.73495773  0.22906962  0.72061153
   0.22448683  0.78246845  0.28193029
   0.79911035  0.74989314  0.34717413
   0.79911035  0.24989315  0.84717413
   0.29657113  0.24987545  0.65212131
   0.29657113  0.74987545  0.15212131
   0.79670671  0.75001134  0.65210563
   0.79670671  0.25001135  0.15210563
   0.79445257  0.75395747  0.44991733
   0.79445257  0.25395747  0.94991736
   0.29128461  0.24787769  0.54895666
   0.29128461  0.74787770  0.04895668
   0.79243972  0.75149532  0.54923479
   0.79243972  0.25149532  0.04923481
   0.32264090  0.16750970  0.50098868
   0.82092387  0.83214608  0.50067399
   0.32264090  0.66750969  0.00098868
   0.82092387  0.33214608  0.00067399
   0.59667034  0.54501231  0.05553907
   0.10560704  0.44208065  0.94806192
   0.09621655  0.45384997  0.05549650
   0.60430292  0.55269811  0.94775325
   0.59667034  0.04501232  0.55553906
   0.10560704  0.94208068  0.44806189
   0.09621655  0.95385000  0.55549648
   0.60430292  0.05269812  0.44775322
   0.32649176  0.32288062  0.40386390
   0.82207680  0.67855921  0.59613845
   0.81606475  0.68299952  0.40415512
   0.32316981  0.32152865  0.59612786
   0.32649176  0.82288062  0.90386393
   0.82207680  0.17855920  0.09613848
   0.81606475  0.18299951  0.90415515
   0.32316981  0.82152865  0.09612789
   0.52818352  0.47422684  0.13708943
   0.02726412  0.52459987  0.86257891
   0.02803692  0.52548919  0.13708964
   0.52989001  0.47142233  0.86264393
   0.52818352  0.97422687  0.63708943
   0.02726412  0.02459988  0.36257888
   0.02803692  0.02548920  0.63708964
   0.52989001  0.97142236  0.36264390
   0.30398228  0.17923031  0.30312941
   0.78985958  0.81014465  0.69569647
   0.79394653  0.81200174  0.30408544
   0.28868070  0.18867198  0.69567252
   0.30398228  0.67923032  0.80312941
   0.78985958  0.31014468  0.19569645
   0.79394653  0.31200177  0.80408544
   0.28868070  0.68867200  0.19567250