BiTiFeO                                 
           1
     5.660211    0.000000    0.001213
     0.000000    5.640848    0.000000
     0.008982    0.000000   40.815667
   Bi   Ti   O    Fe
  20  12  60   4
Direct configuration=     1
   0.24484409  0.23757862  0.00000000
   0.74484408  0.76242137  0.00000000
   0.24484409  0.73757863  0.50000000
   0.74484408  0.26242140  0.50000000
   0.25198972  0.24830766  0.10393570
   0.75198966  0.75169236  0.89606434
   0.75198966  0.75169236  0.10393570
   0.25198972  0.24830766  0.89606434
   0.25198972  0.74830764  0.60393566
   0.75198966  0.25169236  0.39606428
   0.75198966  0.25169236  0.60393566
   0.25198972  0.74830764  0.39606428
   0.22412699  0.27433315  0.21935007
   0.72412699  0.72566688  0.78064990
   0.72412699  0.72566688  0.21935007
   0.22412699  0.27433315  0.78064990
   0.22412699  0.77433312  0.71935010
   0.72412699  0.22566684  0.28064990
   0.72412699  0.22566684  0.71935010
   0.22412699  0.77433312  0.28064990
   0.29682383  0.25109082  0.65202695
   0.29682383  0.75109082  0.15202695
   0.79682386  0.74890918  0.65202695
   0.79682386  0.24890919  0.15202695
   0.29357013  0.24638395  0.45064172
   0.29357013  0.74638396  0.95064175
   0.79357010  0.75361604  0.45064172
   0.79357010  0.25361604  0.95064175
   0.29357013  0.24638395  0.54935825
   0.29357013  0.74638396  0.04935827
   0.79357010  0.75361604  0.54935825
   0.79357010  0.25361604  0.04935827
   0.31881350  0.15770908  0.50000000
   0.81881350  0.84229094  0.50000000
   0.31881350  0.65770906  0.00000000
   0.81881350  0.34229094  0.00000000
   0.60082728  0.55501008  0.05564614
   0.10082728  0.44498989  0.94435388
   0.10082728  0.44498989  0.05564614
   0.60082728  0.55501008  0.94435388
   0.60082728  0.05501010  0.55564612
   0.10082728  0.94498992  0.44435385
   0.10082728  0.94498992  0.55564612
   0.60082728  0.05501010  0.44435385
   0.32772058  0.32494432  0.40226784
   0.82772058  0.67505568  0.59773213
   0.82772058  0.67505568  0.40226784
   0.32772058  0.32494432  0.59773213
   0.32772058  0.82494432  0.90226787
   0.82772058  0.17505567  0.09773216
   0.82772058  0.17505567  0.90226787
   0.32772058  0.82494432  0.09773216
   0.53021055  0.47461614  0.13739407
   0.03021055  0.52538383  0.86260593
   0.03021055  0.52538383  0.13739407
   0.53021055  0.47461614  0.86260593
   0.53021055  0.97461617  0.63739407
   0.03021055  0.02538385  0.36260590
   0.03021055  0.02538385  0.63739407
   0.53021055  0.97461617  0.36260590
   0.29461476  0.18484382  0.30443299
   0.79461479  0.81515616  0.69556701
   0.79461479  0.81515616  0.30443299
   0.29461476  0.18484382  0.69556701
   0.29461476  0.68484384  0.80443299
   0.79461479  0.31515619  0.19556700
   0.79461479  0.31515619  0.80443299
   0.29461476  0.68484384  0.19556700
   0.49390233  0.49391797  0.25123006
   0.99390238  0.50608200  0.74876994
   0.99390238  0.50608200  0.25123006
   0.49390233  0.49391797  0.74876994
   0.49390233  0.99391800  0.75123006
   0.99390238  0.00608201  0.24876994
   0.99390238  0.00608201  0.75123006
   0.49390233  0.99391800  0.24876994
   0.00880992  0.95784479  0.03788698
   0.50880992  0.04215522  0.96211302
   0.50880992  0.04215522  0.03788698
   0.00880992  0.95784479  0.96211302
   0.00880992  0.45784476  0.53788698
   0.50880992  0.54215521  0.46211302
   0.50880992  0.54215521  0.53788698
   0.00880992  0.45784476  0.46211302
   0.10677507  0.05355787  0.15066576
   0.60677504  0.94644213  0.84933424
   0.60677504  0.94644213  0.15066576
   0.10677507  0.05355787  0.84933424
   0.10677507  0.55355787  0.65066576
   0.60677504  0.44644213  0.34933424
   0.60677504  0.44644213  0.65066576
   0.10677507  0.55355787  0.34933424
   0.29682383  0.25109082  0.34797305
   0.29682383  0.75109082  0.84797305
   0.79682386  0.74890918  0.34797305
   0.79682386  0.24890919  0.84797305
BiTiFeO                                 
           1
     5.558019    0.000000    0.003710
     0.000000    5.538005    0.000000
     0.026855    0.000000   40.675279
   Bi   Ti   O    Fe
  20  12  60   4
Direct configuration=     2
   0.24613707  0.23877287  0.00028253
   0.74613705  0.76122712  0.00028253
   0.24613707  0.73877288  0.50028253
   0.74613705  0.26122715  0.50028253
   0.25231092  0.24822607  0.10510414
   0.75327276  0.74916652  0.89233547
   0.75231086  0.75177395  0.10510414
   0.25327282  0.25083349  0.89233547
   0.25231092  0.74822605  0.60510410
   0.75327276  0.24916652  0.39233541
   0.75231086  0.25177395  0.60510410
   0.25327282  0.75083348  0.39233541
   0.22513431  0.27277505  0.22035512
   0.72290722  0.72352687  0.78167894
   0.72513431  0.72722498  0.22035512
   0.22290722  0.27647316  0.78167894
   0.22513431  0.77277502  0.72035515
   0.72290722  0.22352682  0.28167894
   0.72513431  0.22722494  0.72035515
   0.22290722  0.77647313  0.28167894
   0.29712002  0.25039242  0.65339664
   0.29712002  0.75039242  0.15339664
   0.79712005  0.74960758  0.65339664
   0.79712005  0.24960759  0.15339664
   0.29267206  0.24523057  0.44854051
   0.29267206  0.74523059  0.94854054
   0.79267203  0.75476941  0.44854051
   0.79267203  0.25476941  0.94854054
   0.29291136  0.24590171  0.55039674
   0.29291136  0.74590173  0.05039676
   0.79291133  0.75409827  0.55039674
   0.79291133  0.25409827  0.05039676
   0.31940410  0.15897520  0.49945922
   0.81940410  0.84102481  0.49945922
   0.31940410  0.65897519 -0.00054078
   0.81940410  0.34102481 -0.00054078
   0.60124104  0.55368999  0.05505763
   0.09941489  0.44958738  0.94549201
   0.10124104  0.44630998  0.05505763
   0.59941489  0.55041259  0.94549201
   0.60124104  0.05369000  0.55505761
   0.09941489  0.94958741  0.44549198
   0.10124104  0.94631001  0.55505761
   0.59941489  0.05041260  0.44549198
   0.32491969  0.32133102  0.40501533
   0.82660252  0.67604984  0.59691969
   0.82491969  0.67866898  0.40501533
   0.32660252  0.32395016  0.59691969
   0.32491969  0.82133102  0.90501536
   0.82660252  0.17604983  0.09691972
   0.82491969  0.17866896  0.90501536
   0.32660252  0.82395016  0.09691972
   0.52949830  0.47473506  0.13690437
   0.02996787  0.52580841  0.86385252
   0.02949829  0.52526491  0.13690437
   0.52996788  0.47419156  0.86385252
   0.52949830  0.97473509  0.63690437
   0.02996787  0.02580843  0.36385249
   0.02949829  0.02526493  0.63690437
   0.52996788  0.97419159  0.36385249
   0.29574597  0.18424101  0.30465451
   0.79393250  0.81304869  0.69449043
   0.79574600  0.81575898  0.30465451
   0.29393247  0.18695130  0.69449043
   0.29574597  0.68424102  0.80465451
   0.79393250  0.31304872  0.19449041
   0.79574600  0.31575901  0.80465451
   0.29393247  0.68695131  0.19449041
   0.49360122  0.49411117  0.25064378
   0.99412800  0.50618508  0.74819050
   0.99360127  0.50588880  0.25064378
   0.49412794  0.49381489  0.74819050
   0.49360122  0.99411120  0.75064378
   0.99412800  0.00618509  0.24819050
   0.99360127  0.00588881  0.75064378
   0.49412794  0.99381492  0.24819050
   0.00828191  0.95908691  0.03767478
   0.51024087  0.04053102  0.96207851
   0.50828191  0.04091310  0.03767478
   0.01024087  0.95946899  0.96207851
   0.00828191  0.45908688  0.53767478
   0.51024087  0.54053101  0.46207851
   0.50828191  0.54091309  0.53767478
   0.01024087  0.45946896  0.46207851
   0.10732182  0.05473790  0.15011937
   0.60923383  0.94440418  0.85070075
   0.60732180  0.94526210  0.15011937
   0.10923385  0.05559582  0.85070075
   0.10732182  0.55473790  0.65011937
   0.60923383  0.44440418  0.35070075
   0.60732180  0.44526210  0.65011937
   0.10923385  0.55559582  0.35070075
   0.29639968  0.25014909  0.34665647
   0.29639968  0.75014909  0.84665647
   0.79639971  0.74985091  0.34665647
   0.79639971  0.24985093  0.84665647
BiTiFeO                                 
           1
     5.529671    0.000000    0.003592
     0.000000    5.513060    0.000000
     0.025776    0.000000   40.797038
   Bi   Ti   O    Fe
  20  12  60   4
Direct configuration=     3
   0.24558785  0.23944279 -0.00057970
   0.74558783  0.76055719 -0.00057970
   0.24558785  0.73944281  0.49942030
   0.74558783  0.26055722  0.49942030
   0.25166169  0.24849064  0.10536576
   0.75367259  0.74765162  0.89192500
   0.75166163  0.75150938  0.10536576
   0.25367265  0.25234840  0.89192500
   0.25166169  0.74849062  0.60536572
   0.75367259  0.24765162  0.39192494
   0.75166163  0.25150938  0.60536572
   0.25367265  0.75234838  0.39192494
   0.22552564  0.27229895  0.22098048
   0.72101774  0.72117203  0.78197953
   0.72552564  0.72770108  0.22098048
   0.22101774  0.27882800  0.78197953
   0.22552564  0.77229892  0.72098051
   0.72101774  0.22117199  0.28197953
   0.72552564  0.22770104  0.72098051
   0.22101774  0.77882797  0.28197953
   0.29723123  0.25193754  0.65238269
   0.29723123  0.75193754  0.15238269
   0.79723126  0.74806246  0.65238269
   0.79723126  0.24806248  0.15238269
   0.29264766  0.24455223  0.44865647
   0.29264766  0.74455225  0.94865650
   0.79264763  0.75544775  0.44865647
   0.79264763  0.25544775  0.94865650
   0.29225871  0.24576861  0.54967006
   0.29225871  0.74576862  0.04967009
   0.79225868  0.75423138  0.54967006
   0.79225868  0.25423138  0.04967009
   0.32013605  0.15964555  0.50023765
   0.82013605  0.84035446  0.50023765
   0.32013605  0.65964554  0.00023765
   0.82013605  0.34035446  0.00023765
   0.60105600  0.55241165  0.05518074
   0.09943923  0.44983927  0.94577735
   0.10105600  0.44758832  0.05518074
   0.59943923  0.55016070  0.94577735
   0.60105600  0.05241166  0.55518073
   0.09943923  0.94983930  0.44577732
   0.10105600  0.94758835  0.55518073
   0.59943923  0.05016072  0.44577732
   0.32411653  0.32135154  0.40501420
   0.82644807  0.67613809  0.59670905
   0.82411653  0.67864846  0.40501420
   0.32644807  0.32386191  0.59670905
   0.32411653  0.82135154  0.90501423
   0.82644807  0.17613808  0.09670908
   0.82411653  0.17864845  0.90501423
   0.32644807  0.82386191  0.09670908
   0.52967592  0.47489338  0.13687506
   0.03024647  0.52583860  0.86393329
   0.02967591  0.52510659  0.13687506
   0.53024648  0.47416137  0.86393329
   0.52967592  0.97489341  0.63687506
   0.03024647  0.02583862  0.36393326
   0.02967591  0.02510661  0.63687506
   0.53024648  0.97416140  0.36393326
   0.29679126  0.18170107  0.30365492
   0.79355968  0.81396465  0.69520089
   0.79679129  0.81829891  0.30365492
   0.29355965  0.18603534  0.69520089
   0.29679126  0.68170109  0.80365492
   0.79355968  0.31396468  0.19520087
   0.79679129  0.31829894  0.80365492
   0.29355965  0.68603535  0.19520087
   0.49378921  0.49382136  0.25046750
   0.99458386  0.50599316  0.74802248
   0.99378927  0.50617861  0.25046750
   0.49458380  0.49400681  0.74802248
   0.49378921  0.99382139  0.75046750
   0.99458386  0.00599317  0.24802248
   0.99378927  0.00617862  0.75046750
   0.49458380  0.99400684  0.24802248
   0.00989975  0.95948948  0.03812645
   0.51065612  0.04012979  0.96232382
   0.50989975  0.04051053  0.03812645
   0.01065612  0.95987022  0.96232382
   0.00989975  0.45948945  0.53812645
   0.51065612  0.54012978  0.46232382
   0.50989975  0.54051052  0.53812645
   0.01065612  0.45987019  0.46232382
   0.10715331  0.05444541  0.15004405
   0.60917854  0.94479657  0.85068620
   0.60715328  0.94555459  0.15004405
   0.10917857  0.05520343  0.85068620
   0.10715331  0.55444541  0.65004405
   0.60917854  0.44479657  0.35068620
   0.60715328  0.44555459  0.65004405
   0.10917857  0.55520343  0.35068620
   0.29606682  0.25131397  0.34736602
   0.29606682  0.75131397  0.84736602
   0.79606685  0.74868603  0.34736602
   0.79606685  0.24868604  0.84736602
BiTiFeO                                 
           1
     5.516743    0.000000    0.003332
     0.000000    5.502265    0.000000
     0.023739    0.000000   40.895221
   Bi   Ti   O    Fe
  20  12  60   4
Direct configuration=     4
   0.24552636  0.23993490 -0.00136082
   0.74552634  0.76006508 -0.00136082
   0.24552636  0.73993492  0.49863918
   0.74552634  0.26006511  0.49863918
   0.25230360  0.24902738  0.10539692
   0.75566625  0.74640409  0.89167468
   0.75230354  0.75097263  0.10539692
   0.25566631  0.25359593  0.89167468
   0.25230360  0.74902737  0.60539688
   0.75566625  0.24640409  0.39167462
   0.75230354  0.25097263  0.60539688
   0.25566631  0.75359591  0.39167462
   0.22716248  0.27159889  0.22114736
   0.71907507  0.71939938  0.78233260
   0.72716248  0.72840114  0.22114736
   0.21907507  0.28060065  0.78233260
   0.22716248  0.77159886  0.72114739
   0.71907507  0.21939934  0.28233260
   0.72716248  0.22840109  0.72114739
   0.21907507  0.78060062  0.28233260
   0.29691727  0.25035055  0.65301455
   0.29691727  0.75035055  0.15301455
   0.79691730  0.74964945  0.65301455
   0.79691730  0.24964946  0.15301455
   0.29254580  0.24513997  0.44884645
   0.29254580  0.74513999  0.94884648
   0.79254577  0.75486001  0.44884645
   0.79254577  0.25486001  0.94884648
   0.29152820  0.24580862  0.54920455
   0.29152820  0.74580863  0.04920458
   0.79152817  0.75419137  0.54920455
   0.79152817  0.25419137  0.04920458
   0.32061681  0.16101033  0.50088098
   0.82061681  0.83898968  0.50088098
   0.32061681  0.66101032  0.00088098
   0.82061681  0.33898968  0.00088098
   0.60066635  0.55095312  0.05521075
   0.09924164  0.44957375  0.94625361
   0.10066635  0.44904685  0.05521075
   0.59924164  0.55042622  0.94625361
   0.60066635  0.05095314  0.55521073
   0.09924164  0.94957378  0.44625358
   0.10066635  0.94904688  0.55521073
   0.59924164  0.05042623  0.44625358
   0.32250063  0.32089281  0.40496351
   0.82570727  0.67679977  0.59641988
   0.82250063  0.67910719  0.40496351
   0.32570727  0.32320023  0.59641988
   0.32250063  0.82089281  0.90496354
   0.82570727  0.17679976  0.09641991
   0.82250063  0.17910718  0.90496354
   0.32570727  0.82320023  0.09641991
   0.52956665  0.47490688  0.13678146
   0.03053070  0.52601209  0.86392004
   0.02956664  0.52509309  0.13678146
   0.53053071  0.47398788  0.86392004
   0.52956665  0.97490691  0.63678146
   0.03053070  0.02601211  0.36392001
   0.02956664  0.02509311  0.63678146
   0.53053071  0.97398791  0.36392001
   0.29787207  0.18043983  0.30333789
   0.79288726  0.81250483  0.69467792
   0.79787210  0.81956015  0.30333789
   0.29288723  0.18749516  0.69467792
   0.29787207  0.68043985  0.80333789
   0.79288726  0.31250486  0.19467790
   0.79787210  0.31956018  0.80333789
   0.29288723  0.68749517  0.19467790
   0.49374245  0.49307921  0.25057497
   0.99459814  0.50528601  0.74804698
   0.99374251  0.50692076  0.25057497
   0.49459808  0.49471396  0.74804698
   0.49374245  0.99307924  0.75057497
   0.99459814  0.00528602  0.24804698
   0.99374251  0.00692077  0.75057497
   0.49459808  0.99471399  0.24804698
   0.01152889  0.95987841  0.03853489
   0.51138303  0.03921600  0.96254251
   0.51152889  0.04012160  0.03853489
   0.01138303  0.96078402  0.96254251
   0.01152889  0.45987838  0.53853489
   0.51138303  0.53921598  0.46254251
   0.51152889  0.54012159  0.53853489
   0.01138303  0.46078399  0.46254251
   0.10679001  0.05434293  0.14985886
   0.60849438  0.94547217  0.85067977
   0.60678999  0.94565707  0.14985886
   0.10849440  0.05452783  0.85067977
   0.10679001  0.55434293  0.64985886
   0.60849438  0.44547217  0.35067977
   0.60678999  0.44565707  0.64985886
   0.10849440  0.55452783  0.35067977
   0.29554864  0.25120362  0.34705965
   0.29554864  0.75120362  0.84705965
   0.79554867  0.74879638  0.34705965
   0.79554867  0.24879640  0.84705965
BiTiFeO                                 
           1
     5.524379    0.000000    0.003255
     0.000000    5.510483    0.000000
     0.023309    0.000000   40.935798
   Bi   Ti   O    Fe
  20  12  60   4
Direct configuration=     5
   0.24552158  0.24023190 -0.00176767
   0.74552156  0.75976809 -0.00176767
   0.24552158  0.74023191  0.49823233
   0.74552156  0.25976812  0.49823233
   0.25268981  0.24927178  0.10539362
   0.75686085  0.74577079  0.89154359
   0.75268975  0.75072823  0.10539362
   0.25686091  0.25422923  0.89154359
   0.25268981  0.74927177  0.60539357
   0.75686085  0.24577079  0.39154353
   0.75268975  0.25072823  0.60539357
   0.25686091  0.75422921  0.39154353
   0.22818013  0.27119791  0.22122470
   0.71793787  0.71846231  0.78253250
   0.72818013  0.72880212  0.22122470
   0.21793787  0.28153772  0.78253250
   0.22818013  0.77119788  0.72122473
   0.71793787  0.21846227  0.28253250
   0.72818013  0.22880207  0.72122473
   0.21793787  0.78153769  0.28253250
   0.29674972  0.24953659  0.65330103
   0.29674972  0.74953659  0.15330103
   0.79674975  0.75046341  0.65330103
   0.79674975  0.25046342  0.15330103
   0.29248841  0.24557186  0.44895487
   0.29248841  0.74557187  0.94895490
   0.79248838  0.75442813  0.44895487
   0.79248838  0.25442813  0.94895490
   0.29114951  0.24585304  0.54899662
   0.29114951  0.74585305  0.04899664
   0.79114948  0.75414695  0.54899662
   0.79114948  0.25414695  0.04899664
   0.32088994  0.16183436  0.50120554
   0.82088994  0.83816565  0.50120554
   0.32088994  0.66183435  0.00120554
   0.82088994  0.33816565  0.00120554
   0.60042983  0.55012000  0.05521552
   0.09912694  0.44939892  0.94654050
   0.10042983  0.44987997  0.05521552
   0.59912694  0.55060105  0.94654050
   0.60042983  0.05012001  0.55521551
   0.09912694  0.94939895  0.44654047
   0.10042983  0.94988000  0.55521551
   0.59912694  0.05060106  0.44654047
   0.32150093  0.32057142  0.40494645
   0.82524521  0.67721345  0.59624004
   0.82150093  0.67942858  0.40494645
   0.32524521  0.32278655  0.59624004
   0.32150093  0.82057142  0.90494648
   0.82524521  0.17721343  0.09624007
   0.82150093  0.17942857  0.90494648
   0.32524521  0.82278655  0.09624007
   0.52948799  0.47490927  0.13674116
   0.03071418  0.52610630  0.86389474
   0.02948798  0.52509070  0.13674116
   0.53071419  0.47389367  0.86389474
   0.52948799  0.97490930  0.63674116
   0.03071418  0.02610632  0.36389472
   0.02948798  0.02509072  0.63674116
   0.53071419  0.97389370  0.36389472
   0.29850816  0.17976230  0.30318014
   0.79245095  0.81174939  0.69445217
   0.79850819  0.82023768  0.30318014
   0.29245092  0.18825060  0.69445217
   0.29850816  0.67976232  0.80318014
   0.79245095  0.31174942  0.19445215
   0.79850819  0.32023771  0.80318014
   0.29245092  0.68825061  0.19445215
   0.49371718  0.49265325  0.25064992
   0.99458404  0.50486986  0.74807359
   0.99371724  0.50734672  0.25064992
   0.49458398  0.49513011  0.74807359
   0.49371718  0.99265328  0.75064992
   0.99458404  0.00486987  0.24807359
   0.99371724  0.00734673  0.75064992
   0.49458398  0.99513014  0.24807359
   0.01243322  0.96010804  0.03874970
   0.51185845  0.03863261  0.96265488
   0.51243322  0.03989198  0.03874970
   0.01185844  0.96136740  0.96265488
   0.01243322  0.46010801  0.53874970
   0.51185845  0.53863260  0.46265488
   0.51243322  0.53989196  0.53874970
   0.01185844  0.46136737  0.46265488
   0.10656500  0.05427851  0.14975637
   0.60805553  0.94586173  0.85067554
   0.60656498  0.94572149  0.14975637
   0.10805555  0.05413827  0.85067554
   0.10656500  0.55427851  0.64975637
   0.60805553  0.44586173  0.35067554
   0.60656498  0.44572149  0.64975637
   0.10805555  0.55413827  0.35067554
   0.29525451  0.25111195  0.34684444
   0.29525451  0.75111195  0.84684444
   0.79525454  0.74888805  0.34684444
   0.79525454  0.24888807  0.84684444
BiTiFeO                                 
           1
     5.494866    0.000000   -0.000281
     0.000000    5.480294    0.000000
    -0.002734    0.000000   41.026379
   Bi   Ti   O    Fe
  20  12  60   4
Direct configuration=     6
   0.24558184  0.23988737 -0.00176613
   0.74558183  0.76011262 -0.00176613
   0.24558184  0.73988738  0.49823387
   0.74558183  0.26011265  0.49823387
   0.25275399  0.24924314  0.10539233
   0.75693779  0.74570360  0.89159711
   0.75275393  0.75075688  0.10539233
   0.25693785  0.25429642  0.89159711
   0.25275399  0.74924312  0.60539228
   0.75693779  0.24570360  0.39159705
   0.75275393  0.25075688  0.60539228
   0.25693785  0.75429640  0.39159705
   0.22819226  0.27106949  0.22117087
   0.71810982  0.71835860  0.78258621
   0.72819226  0.72893054  0.22117087
   0.21810982  0.28164143  0.78258621
   0.22819226  0.77106946  0.72117090
   0.71810982  0.21835855  0.28258621
   0.72819226  0.22893049  0.72117090
   0.21810982  0.78164140  0.28258621
   0.29675027  0.24967665  0.65323545
   0.29675027  0.74967665  0.15323545
   0.79675030  0.75032335  0.65323545
   0.79675030  0.25032336  0.15323545
   0.29246938  0.24569234  0.44898106
   0.29246938  0.74569235  0.94898109
   0.79246935  0.75430765  0.44898106
   0.79246935  0.25430765  0.94898109
   0.29106140  0.24585544  0.54901357
   0.29106140  0.74585546  0.04901359
   0.79106137  0.75414454  0.54901357
   0.79106137  0.25414454  0.04901359
   0.32073689  0.16187408  0.50123517
   0.82073689  0.83812593  0.50123517
   0.32073689  0.66187407  0.00123517
   0.82073689  0.33812593  0.00123517
   0.60049741  0.55014016  0.05520342
   0.09911144  0.44929946  0.94649903
   0.10049741  0.44985981  0.05520342
   0.59911144  0.55070051  0.94649903
   0.60049741  0.05014017  0.55520340
   0.09911144  0.94929949  0.44649901
   0.10049741  0.94985984  0.55520340
   0.59911144  0.05070052  0.44649901
   0.32165772  0.32066500  0.40488626
   0.82527368  0.67726208  0.59624169
   0.82165772  0.67933500  0.40488626
   0.32527368  0.32273792  0.59624169
   0.32165772  0.82066500  0.90488629
   0.82527368  0.17726206  0.09624172
   0.82165772  0.17933499  0.90488629
   0.32527368  0.82273792  0.09624172
   0.52949975  0.47490387  0.13676229
   0.03064134  0.52617479  0.86390862
   0.02949974  0.52509610  0.13676229
   0.53064135  0.47382518  0.86390862
   0.52949975  0.97490390  0.63676229
   0.03064134  0.02617480  0.36390859
   0.02949974  0.02509612  0.63676229
   0.53064135  0.97382521  0.36390859
   0.29845415  0.17976385  0.30318797
   0.79254111  0.81191264  0.69449159
   0.79845418  0.82023613  0.30318797
   0.29254108  0.18808735  0.69449159
   0.29845415  0.67976387  0.80318797
   0.79254111  0.31191267  0.19449158
   0.79845418  0.32023616  0.80318797
   0.29254108  0.68808736  0.19449158
   0.49360037  0.49261242  0.25063689
   0.99449830  0.50480351  0.74804593
   0.99360043  0.50738755  0.25063689
   0.49449824  0.49519646  0.74804593
   0.49360037  0.99261245  0.75063689
   0.99449830  0.00480352  0.24804593
   0.99360043  0.00738757  0.75063689
   0.49449824  0.99519649  0.24804593
   0.01239414  0.95988964  0.03872663
   0.51176319  0.03873786  0.96264975
   0.51239414  0.04011038  0.03872663
   0.01176319  0.96126216  0.96264975
   0.01239414  0.45988961  0.53872663
   0.51176319  0.53873784  0.46264975
   0.51239414  0.54011036  0.53872663
   0.01176319  0.46126213  0.46264975
   0.10656183  0.05429534  0.14981130
   0.60807708  0.94593275  0.85064184
   0.60656180  0.94570466  0.14981130
   0.10807710  0.05406725  0.85064184
   0.10656183  0.55429534  0.64981130
   0.60807708  0.44593275  0.35064184
   0.60656180  0.44570466  0.64981130
   0.10807710  0.55406725  0.35064184
   0.29523477  0.25110016  0.34686112
   0.29523477  0.75110016  0.84686112
   0.79523480  0.74889984  0.34686112
   0.79523480  0.24889986  0.84686112
BiTiFeO                                 
           1
     5.504696    0.000000    0.000693
     0.000000    5.491078    0.000000
     0.004657    0.000000   41.074147
   Bi   Ti   O    Fe
  20  12  60   4
Direct configuration=     7
   0.24556405  0.24087374 -0.00141764
   0.74556404  0.75912624 -0.00141764
   0.24556405  0.74087376  0.49858236
   0.74556404  0.25912627  0.49858236
   0.25216435  0.24828803  0.10529341
   0.75751846  0.74663871  0.89128935
   0.75216429  0.75171199  0.10529341
   0.25751852  0.25336130  0.89128935
   0.25216435  0.74828801  0.60529337
   0.75751846  0.24663871  0.39128929
   0.75216429  0.25171199  0.60529337
   0.25751852  0.75336129  0.39128929
   0.22966222  0.27146355  0.22140448
   0.71591433  0.71797768  0.78246363
   0.72966222  0.72853648  0.22140448
   0.21591433  0.28202235  0.78246363
   0.22966222  0.77146352  0.72140451
   0.71591433  0.21797763  0.28246363
   0.72966222  0.22853643  0.72140451
   0.21591433  0.78202232  0.28246363
   0.29700900  0.25135572  0.65198811
   0.29700900  0.75135572  0.15198811
   0.79700903  0.74864428  0.65198811
   0.79700903  0.24864430  0.15198811
   0.29279262  0.24669101  0.44864483
   0.29279262  0.74669103  0.94864486
   0.79279259  0.75330897  0.44864483
   0.79279259  0.25330897  0.94864486
   0.29159116  0.24560776  0.54981241
   0.29159116  0.74560777  0.04981243
   0.79159113  0.75439223  0.54981241
   0.79159113  0.25439223  0.04981243
   0.32127949  0.16309393  0.50078462
   0.82127949  0.83690609  0.50078462
   0.32127949  0.66309391  0.00078462
   0.82127949  0.33690609  0.00078462
   0.60020861  0.54933126  0.05502184
   0.09908706  0.44935322  0.94703746
   0.10020861  0.45066871  0.05502184
   0.59908706  0.55064675  0.94703746
   0.60020861  0.04933127  0.55502183
   0.09908706  0.94935325  0.44703743
   0.10020861  0.95066874  0.55502183
   0.59908706  0.05064677  0.44703743
   0.31956542  0.31909217  0.40555792
   0.82455968  0.67788298  0.59574308
   0.81956542  0.68090783  0.40555792
   0.32455968  0.32211702  0.59574308
   0.31956542  0.81909217  0.90555795
   0.82455968  0.17788297  0.09574311
   0.81956542  0.18090781  0.90555795
   0.32455968  0.82211702  0.09574311
   0.52934351  0.47498551  0.13690740
   0.03130524  0.52600518  0.86370159
   0.02934350  0.52501446  0.13690740
   0.53130525  0.47399479  0.86370159
   0.52934351  0.97498554  0.63690740
   0.03130524  0.02600520  0.36370156
   0.02934350  0.02501447  0.63690740
   0.53130525  0.97399482  0.36370156
   0.29966440  0.17898711  0.30331005
   0.79155102  0.81300693  0.69548430
   0.79966443  0.82101288  0.30331005
   0.29155099  0.18699305  0.69548430
   0.29966440  0.67898712  0.80331005
   0.79155102  0.31300696  0.19548429
   0.79966443  0.32101291  0.80331005
   0.29155099  0.68699307  0.19548429
   0.49397611  0.49238126  0.25077067
   0.99458241  0.50437929  0.74826285
   0.99397617  0.50761871  0.25077067
   0.49458235  0.49562068  0.74826285
   0.49397611  0.99238129  0.75077067
   0.99458241  0.00437930  0.24826285
   0.99397617  0.00761872  0.75077067
   0.49458235  0.99562071  0.24826285
   0.01277154  0.96025184  0.03857199
   0.51323033  0.03718241  0.96256368
   0.51277154  0.03974817  0.03857199
   0.01323033  0.96281760  0.96256368
   0.01277154  0.46025181  0.53857199
   0.51323033  0.53718240  0.46256368
   0.51277154  0.53974816  0.53857199
   0.01323033  0.46281757  0.46256368
   0.10629345  0.05414410  0.14971677
   0.60756745  0.94556146  0.85076114
   0.60629343  0.94585590  0.14971677
   0.10756747  0.05443854  0.85076114
   0.10629345  0.55414410  0.64971677
   0.60756745  0.44556146  0.35076114
   0.60629343  0.44585590  0.64971677
   0.10756747  0.55443854  0.35076114
   0.29519803  0.25134544  0.34632601
   0.29519803  0.75134544  0.84632601
   0.79519806  0.74865456  0.34632601
   0.79519806  0.24865458  0.84632601
BiTiFeO                                 
           1
     5.533164    0.000000   -0.002972
     0.000000    5.520052    0.000000
    -0.023892    0.000000   40.982093
   Bi   Ti   O    Fe
  20  12  60   4
Direct configuration=     8
   0.24554181  0.24121438 -0.00154568
   0.74554180  0.75878560 -0.00154568
   0.24554181  0.74121440  0.49845432
   0.74554180  0.25878563  0.49845432
   0.25249978  0.24861700  0.10515509
   0.75798723  0.74648132  0.89133415
   0.75249972  0.75138301  0.10515509
   0.25798729  0.25351869  0.89133415
   0.25249978  0.74861699  0.60515504
   0.75798723  0.24648132  0.39133409
   0.75249972  0.25138301  0.60515504
   0.25798729  0.75351868  0.39133409
   0.22997756  0.27162557  0.22135481
   0.71569608  0.71835439  0.78247184
   0.72997756  0.72837446  0.22135481
   0.21569608  0.28164564  0.78247184
   0.22997756  0.77162554  0.72135484
   0.71569608  0.21835435  0.28247184
   0.72997756  0.22837442  0.72135484
   0.21569608  0.78164561  0.28247184
   0.29677233  0.24969533  0.65294364
   0.29677233  0.74969533  0.15294364
   0.79677236  0.75030467  0.65294364
   0.79677236  0.25030468  0.15294364
   0.29278193  0.24655092  0.44890548
   0.29278193  0.74655094  0.94890551
   0.79278190  0.75344906  0.44890548
   0.79278190  0.25344906  0.94890551
   0.29149019  0.24608267  0.54936305
   0.29149019  0.74608269  0.04936308
   0.79149016  0.75391731  0.54936305
   0.79149016  0.25391731  0.04936308
   0.32133190  0.16361197  0.50095612
   0.82133190  0.83638805  0.50095612
   0.32133190  0.66361195  0.00095612
   0.82133190  0.33638805  0.00095612
   0.60010409  0.54941859  0.05510956
   0.09930347  0.44908477  0.94715026
   0.10010409  0.45058138  0.05510956
   0.59930347  0.55091520  0.94715026
   0.60010409  0.04941861  0.55510955
   0.09930347  0.94908480  0.44715023
   0.10010409  0.95058141  0.55510955
   0.59930347  0.05091521  0.44715023
   0.31907486  0.31912926  0.40537743
   0.82435060  0.67781013  0.59594479
   0.81907486  0.68087074  0.40537743
   0.32435060  0.32218987  0.59594479
   0.31907486  0.81912926  0.90537746
   0.82435060  0.17781012  0.09594482
   0.81907486  0.18087073  0.90537746
   0.32435060  0.82218987  0.09594482
   0.52918205  0.47497511  0.13683573
   0.03141090  0.52603462  0.86361074
   0.02918204  0.52502486  0.13683573
   0.53141091  0.47396535  0.86361074
   0.52918205  0.97497514  0.63683573
   0.03141090  0.02603463  0.36361071
   0.02918204  0.02502487  0.63683573
   0.53141091  0.97396538  0.36361071
   0.29989485  0.17885533  0.30322435
   0.79138604  0.81162998  0.69470122
   0.79989488  0.82114466  0.30322435
   0.29138601  0.18837000  0.69470122
   0.29989485  0.67885534  0.80322435
   0.79138604  0.31163001  0.19470120
   0.79989488  0.32114469  0.80322435
   0.29138601  0.68837002  0.19470120